<?xml version="1.0" encoding="UTF-8"?>

<!-- generated on 2022-04-22 11:34:37 by Eclipse SUMO sumo Version 1.10.0
<configuration xmlns:xsi="http://www.w3.org/2001/XMLSchema-instance" xsi:noNamespaceSchemaLocation="http://sumo.dlr.de/xsd/sumoConfiguration.xsd">

    <input>
        <net-file value="../sumoNet1/net.net.xml"/>
        <route-files value="../sumoNet1/test0.rou.xml"/>
    </input>

    <output>
        <tripinfo-output value="tripinfo.xml"/>
    </output>

    <time>
        <begin value="0"/>
        <step-length value="1"/>
    </time>

    <processing>
        <time-to-teleport value="-1"/>
        <waiting-time-memory value="15"/>
    </processing>

    <traci_server>
        <remote-port value="56184"/>
    </traci_server>

    <gui_only>
        <quit-on-end value="true"/>
        <start value="true"/>
        <tracker-interval value="1"/>
    </gui_only>

</configuration>
-->

<tripinfos xmlns:xsi="http://www.w3.org/2001/XMLSchema-instance" xsi:noNamespaceSchemaLocation="http://sumo.dlr.de/xsd/tripinfo_file.xsd">
    <tripinfo id="E_W_0" depart="5.00" departLane="road_2_1_2_2" departPos="5.10" departSpeed="10.00" departDelay="0.00" arrival="65.00" arrivalLane="road_1_1_2_0" arrivalPos="300.00" arrivalSpeed="10.69" duration="60.00" routeLength="621.01" waitingTime="0.00" waitingCount="0" stopTime="0.00" timeLoss="3.37" rerouteNo="0" devices="tripinfo_E_W_0" vType="standard_car" speedFactor="1.06" vaporized=""/>
    <tripinfo id="N_W_2" depart="30.00" departLane="road_1_2_3_2" departPos="5.10" departSpeed="10.00" departDelay="0.00" arrival="89.00" arrivalLane="road_1_1_2_0" arrivalPos="300.00" arrivalSpeed="10.37" duration="59.00" routeLength="603.77" waitingTime="0.00" waitingCount="0" stopTime="0.00" timeLoss="3.87" rerouteNo="0" devices="tripinfo_N_W_2" vType="standard_car" speedFactor="1.01" vaporized=""/>
    <tripinfo id="N_W_3" depart="36.00" departLane="road_1_2_3_0" departPos="5.10" departSpeed="10.00" departDelay="0.00" arrival="95.00" arrivalLane="road_1_1_2_0" arrivalPos="300.00" arrivalSpeed="10.14" duration="59.00" routeLength="603.77" waitingTime="0.00" waitingCount="0" stopTime="0.00" timeLoss="3.20" rerouteNo="0" devices="tripinfo_N_W_3" vType="standard_car" speedFactor="1.08" vaporized=""/>
    <tripinfo id="S_N_1" depart="26.00" departLane="road_1_0_1_1" departPos="5.10" departSpeed="10.00" departDelay="0.00" arrival="102.00" arrivalLane="road_1_1_1_0" arrivalPos="300.00" arrivalSpeed="10.24" duration="76.00" routeLength="621.01" waitingTime="12.00" waitingCount="1" stopTime="0.00" timeLoss="19.97" rerouteNo="0" devices="tripinfo_S_N_1" vType="standard_car" speedFactor="0.94" vaporized=""/>
    <tripinfo id="W_E_4" depart="52.00" departLane="road_0_1_0_2" departPos="5.10" departSpeed="10.00" departDelay="0.00" arrival="136.00" arrivalLane="road_1_1_0_0" arrivalPos="300.00" arrivalSpeed="10.16" duration="84.00" routeLength="621.01" waitingTime="20.00" waitingCount="1" stopTime="0.00" timeLoss="27.78" rerouteNo="0" devices="tripinfo_W_E_4" vType="standard_car" speedFactor="1.03" vaporized=""/>
    <tripinfo id="W_E_5" depart="77.00" departLane="road_0_1_0_1" departPos="5.10" departSpeed="10.00" departDelay="0.00" arrival="138.00" arrivalLane="road_1_1_0_1" arrivalPos="300.00" arrivalSpeed="10.87" duration="61.00" routeLength="621.01" waitingTime="0.00" waitingCount="0" stopTime="0.00" timeLoss="4.51" rerouteNo="0" devices="tripinfo_W_E_5" vType="standard_car" speedFactor="0.83" vaporized=""/>
    <tripinfo id="W_E_6" depart="79.00" departLane="road_0_1_0_1" departPos="5.10" departSpeed="10.00" departDelay="1.00" arrival="140.00" arrivalLane="road_1_1_0_0" arrivalPos="300.00" arrivalSpeed="10.70" duration="61.00" routeLength="621.01" waitingTime="0.00" waitingCount="0" stopTime="0.00" timeLoss="4.21" rerouteNo="0" devices="tripinfo_W_E_6" vType="standard_car" speedFactor="1.05" vaporized=""/>
    <tripinfo id="W_S_7" depart="81.00" departLane="road_0_1_0_1" departPos="5.10" departSpeed="10.00" departDelay="1.00" arrival="140.00" arrivalLane="road_1_1_3_0" arrivalPos="300.00" arrivalSpeed="10.21" duration="59.00" routeLength="603.77" waitingTime="0.00" waitingCount="0" stopTime="0.00" timeLoss="3.91" rerouteNo="0" devices="tripinfo_W_S_7" vType="standard_car" speedFactor="0.89" vaporized=""/>
    <tripinfo id="N_W_8" depart="81.00" departLane="road_1_2_3_2" departPos="5.10" departSpeed="10.00" departDelay="0.00" arrival="140.00" arrivalLane="road_1_1_2_0" arrivalPos="300.00" arrivalSpeed="11.01" duration="59.00" routeLength="603.77" waitingTime="0.00" waitingCount="0" stopTime="0.00" timeLoss="3.90" rerouteNo="0" devices="tripinfo_N_W_8" vType="standard_car" speedFactor="0.94" vaporized=""/>
    <tripinfo id="N_W_9" depart="88.00" departLane="road_1_2_3_0" departPos="5.10" departSpeed="10.00" departDelay="0.00" arrival="148.00" arrivalLane="road_1_1_2_0" arrivalPos="300.00" arrivalSpeed="10.12" duration="60.00" routeLength="603.77" waitingTime="0.00" waitingCount="0" stopTime="0.00" timeLoss="4.60" rerouteNo="0" devices="tripinfo_N_W_9" vType="standard_car" speedFactor="0.86" vaporized=""/>
    <tripinfo id="S_N_10" depart="95.00" departLane="road_1_0_1_0" departPos="5.10" departSpeed="10.00" departDelay="0.00" arrival="170.00" arrivalLane="road_1_1_1_0" arrivalPos="300.00" arrivalSpeed="10.26" duration="75.00" routeLength="621.01" waitingTime="10.00" waitingCount="1" stopTime="0.00" timeLoss="18.93" rerouteNo="0" devices="tripinfo_S_N_10" vType="standard_car" speedFactor="1.09" vaporized=""/>
    <tripinfo id="E_N_12" depart="121.00" departLane="road_2_1_2_2" departPos="5.10" departSpeed="10.00" departDelay="0.00" arrival="180.00" arrivalLane="road_1_1_1_0" arrivalPos="300.00" arrivalSpeed="10.67" duration="59.00" routeLength="603.77" waitingTime="0.00" waitingCount="0" stopTime="0.00" timeLoss="3.67" rerouteNo="0" devices="tripinfo_E_N_12" vType="standard_car" speedFactor="1.05" vaporized=""/>
    <tripinfo id="N_W_13" depart="122.00" departLane="road_1_2_3_0" departPos="5.10" departSpeed="10.00" departDelay="0.00" arrival="181.00" arrivalLane="road_1_1_2_0" arrivalPos="300.00" arrivalSpeed="10.96" duration="59.00" routeLength="603.77" waitingTime="0.00" waitingCount="0" stopTime="0.00" timeLoss="3.46" rerouteNo="0" devices="tripinfo_N_W_13" vType="standard_car" speedFactor="1.12" vaporized=""/>
    <tripinfo id="N_W_14" depart="130.00" departLane="road_1_2_3_1" departPos="5.10" departSpeed="10.00" departDelay="0.00" arrival="189.00" arrivalLane="road_1_1_2_0" arrivalPos="300.00" arrivalSpeed="11.02" duration="59.00" routeLength="603.77" waitingTime="0.00" waitingCount="0" stopTime="0.00" timeLoss="3.83" rerouteNo="0" devices="tripinfo_N_W_14" vType="standard_car" speedFactor="0.99" vaporized=""/>
    <tripinfo id="S_E_15" depart="135.00" departLane="road_1_0_1_2" departPos="5.10" departSpeed="10.00" departDelay="0.00" arrival="194.00" arrivalLane="road_1_1_0_0" arrivalPos="300.00" arrivalSpeed="10.95" duration="59.00" routeLength="603.77" waitingTime="0.00" waitingCount="0" stopTime="0.00" timeLoss="3.82" rerouteNo="0" devices="tripinfo_S_E_15" vType="standard_car" speedFactor="0.93" vaporized=""/>
    <tripinfo id="N_S_11" depart="113.00" departLane="road_1_2_3_0" departPos="5.10" departSpeed="10.00" departDelay="0.00" arrival="203.00" arrivalLane="road_1_1_3_0" arrivalPos="300.00" arrivalSpeed="10.93" duration="90.00" routeLength="621.01" waitingTime="26.00" waitingCount="1" stopTime="0.00" timeLoss="33.79" rerouteNo="0" devices="tripinfo_N_S_11" vType="standard_car" speedFactor="1.03" vaporized=""/>
    <tripinfo id="S_E_17" depart="153.00" departLane="road_1_0_1_1" departPos="5.10" departSpeed="10.00" departDelay="0.00" arrival="212.00" arrivalLane="road_1_1_0_0" arrivalPos="300.00" arrivalSpeed="11.02" duration="59.00" routeLength="603.77" waitingTime="0.00" waitingCount="0" stopTime="0.00" timeLoss="4.21" rerouteNo="0" devices="tripinfo_S_E_17" vType="standard_car" speedFactor="0.94" vaporized=""/>
    <tripinfo id="N_W_18" depart="154.00" departLane="road_1_2_3_1" departPos="5.10" departSpeed="10.00" departDelay="0.00" arrival="213.00" arrivalLane="road_1_1_2_0" arrivalPos="300.00" arrivalSpeed="10.47" duration="59.00" routeLength="603.77" waitingTime="0.00" waitingCount="0" stopTime="0.00" timeLoss="3.86" rerouteNo="0" devices="tripinfo_N_W_18" vType="standard_car" speedFactor="0.94" vaporized=""/>
    <tripinfo id="N_W_20" depart="163.00" departLane="road_1_2_3_0" departPos="5.10" departSpeed="10.00" departDelay="0.00" arrival="222.00" arrivalLane="road_1_1_2_0" arrivalPos="300.00" arrivalSpeed="10.97" duration="59.00" routeLength="603.77" waitingTime="0.00" waitingCount="0" stopTime="0.00" timeLoss="3.11" rerouteNo="0" devices="tripinfo_N_W_20" vType="standard_car" speedFactor="1.02" vaporized=""/>
    <tripinfo id="E_N_24" depart="177.00" departLane="road_2_1_2_1" departPos="5.10" departSpeed="10.00" departDelay="0.00" arrival="236.00" arrivalLane="road_1_1_1_0" arrivalPos="300.00" arrivalSpeed="10.90" duration="59.00" routeLength="603.77" waitingTime="0.00" waitingCount="0" stopTime="0.00" timeLoss="4.00" rerouteNo="0" devices="tripinfo_E_N_24" vType="standard_car" speedFactor="0.83" vaporized=""/>
    <tripinfo id="E_W_19" depart="159.00" departLane="road_2_1_2_2" departPos="5.10" departSpeed="10.00" departDelay="0.00" arrival="237.00" arrivalLane="road_1_1_2_0" arrivalPos="300.00" arrivalSpeed="10.33" duration="78.00" routeLength="621.01" waitingTime="15.00" waitingCount="1" stopTime="0.00" timeLoss="21.48" rerouteNo="0" devices="tripinfo_E_W_19" vType="standard_car" speedFactor="1.16" vaporized=""/>
    <tripinfo id="E_W_21" depart="166.00" departLane="road_2_1_2_0" departPos="5.10" departSpeed="10.00" departDelay="0.00" arrival="239.00" arrivalLane="road_1_1_2_0" arrivalPos="300.00" arrivalSpeed="10.93" duration="73.00" routeLength="621.01" waitingTime="9.00" waitingCount="1" stopTime="0.00" timeLoss="16.88" rerouteNo="0" devices="tripinfo_E_W_21" vType="standard_car" speedFactor="1.01" vaporized=""/>
    <tripinfo id="E_W_22" depart="172.00" departLane="road_2_1_2_2" departPos="5.10" departSpeed="10.00" departDelay="0.00" arrival="241.00" arrivalLane="road_1_1_2_0" arrivalPos="300.00" arrivalSpeed="10.68" duration="69.00" routeLength="621.01" waitingTime="4.00" waitingCount="1" stopTime="0.00" timeLoss="12.95" rerouteNo="0" devices="tripinfo_E_W_22" vType="standard_car" speedFactor="0.98" vaporized=""/>
    <tripinfo id="S_E_25" depart="185.00" departLane="road_1_0_1_2" departPos="5.10" departSpeed="10.00" departDelay="0.00" arrival="244.00" arrivalLane="road_1_1_0_0" arrivalPos="300.00" arrivalSpeed="10.79" duration="59.00" routeLength="603.77" waitingTime="0.00" waitingCount="0" stopTime="0.00" timeLoss="3.94" rerouteNo="0" devices="tripinfo_S_E_25" vType="standard_car" speedFactor="0.87" vaporized=""/>
    <tripinfo id="W_S_26" depart="196.00" departLane="road_0_1_0_1" departPos="5.10" departSpeed="10.00" departDelay="0.00" arrival="255.00" arrivalLane="road_1_1_3_0" arrivalPos="300.00" arrivalSpeed="10.75" duration="59.00" routeLength="603.77" waitingTime="0.00" waitingCount="0" stopTime="0.00" timeLoss="3.80" rerouteNo="0" devices="tripinfo_W_S_26" vType="standard_car" speedFactor="0.92" vaporized=""/>
    <tripinfo id="E_W_27" depart="199.00" departLane="road_2_1_2_0" departPos="5.10" departSpeed="10.00" departDelay="0.00" arrival="258.00" arrivalLane="road_1_1_2_0" arrivalPos="300.00" arrivalSpeed="10.92" duration="59.00" routeLength="621.01" waitingTime="0.00" waitingCount="0" stopTime="0.00" timeLoss="2.85" rerouteNo="0" devices="tripinfo_E_W_27" vType="standard_car" speedFactor="0.95" vaporized=""/>
    <tripinfo id="E_W_28" depart="200.00" departLane="road_2_1_2_1" departPos="5.10" departSpeed="10.00" departDelay="0.00" arrival="260.00" arrivalLane="road_1_1_2_1" arrivalPos="300.00" arrivalSpeed="10.34" duration="60.00" routeLength="621.01" waitingTime="0.00" waitingCount="0" stopTime="0.00" timeLoss="3.60" rerouteNo="0" devices="tripinfo_E_W_28" vType="standard_car" speedFactor="1.13" vaporized=""/>
    <tripinfo id="E_W_29" depart="207.00" departLane="road_2_1_2_0" departPos="5.10" departSpeed="10.00" departDelay="0.00" arrival="266.00" arrivalLane="road_1_1_2_0" arrivalPos="300.00" arrivalSpeed="10.19" duration="59.00" routeLength="621.01" waitingTime="0.00" waitingCount="0" stopTime="0.00" timeLoss="2.46" rerouteNo="0" devices="tripinfo_E_W_29" vType="standard_car" speedFactor="0.93" vaporized=""/>
    <tripinfo id="S_E_30" depart="208.00" departLane="road_1_0_1_2" departPos="5.10" departSpeed="10.00" departDelay="0.00" arrival="267.00" arrivalLane="road_1_1_0_0" arrivalPos="300.00" arrivalSpeed="10.31" duration="59.00" routeLength="603.77" waitingTime="0.00" waitingCount="0" stopTime="0.00" timeLoss="3.77" rerouteNo="0" devices="tripinfo_S_E_30" vType="standard_car" speedFactor="1.18" vaporized=""/>
    <tripinfo id="S_E_31" depart="210.00" departLane="road_1_0_1_2" departPos="5.10" departSpeed="10.00" departDelay="0.00" arrival="269.00" arrivalLane="road_1_1_0_0" arrivalPos="300.00" arrivalSpeed="10.59" duration="59.00" routeLength="603.77" waitingTime="0.00" waitingCount="0" stopTime="0.00" timeLoss="3.67" rerouteNo="0" devices="tripinfo_S_E_31" vType="standard_car" speedFactor="1.15" vaporized=""/>
    <tripinfo id="W_S_32" depart="210.00" departLane="road_0_1_0_1" departPos="5.10" departSpeed="10.00" departDelay="0.00" arrival="269.00" arrivalLane="road_1_1_3_0" arrivalPos="300.00" arrivalSpeed="10.36" duration="59.00" routeLength="603.77" waitingTime="0.00" waitingCount="0" stopTime="0.00" timeLoss="3.80" rerouteNo="0" devices="tripinfo_W_S_32" vType="standard_car" speedFactor="1.01" vaporized=""/>
    <tripinfo id="S_N_16" depart="143.00" departLane="road_1_0_1_0" departPos="5.10" departSpeed="10.00" departDelay="0.00" arrival="271.00" arrivalLane="road_1_1_1_0" arrivalPos="300.00" arrivalSpeed="10.12" duration="128.00" routeLength="621.01" waitingTime="63.00" waitingCount="1" stopTime="0.00" timeLoss="71.81" rerouteNo="0" devices="tripinfo_S_N_16" vType="standard_car" speedFactor="0.88" vaporized=""/>
    <tripinfo id="W_E_23" depart="175.00" departLane="road_0_1_0_0" departPos="5.10" departSpeed="10.00" departDelay="0.00" arrival="273.00" arrivalLane="road_1_1_0_0" arrivalPos="300.00" arrivalSpeed="11.11" duration="98.00" routeLength="621.01" waitingTime="34.00" waitingCount="1" stopTime="0.00" timeLoss="41.75" rerouteNo="0" devices="tripinfo_W_E_23" vType="standard_car" speedFactor="0.89" vaporized=""/>
    <tripinfo id="W_E_34" depart="224.00" departLane="road_0_1_0_1" departPos="5.10" departSpeed="10.00" departDelay="0.00" arrival="283.00" arrivalLane="road_1_1_0_1" arrivalPos="300.00" arrivalSpeed="10.55" duration="59.00" routeLength="621.01" waitingTime="0.00" waitingCount="0" stopTime="0.00" timeLoss="2.84" rerouteNo="0" devices="tripinfo_W_E_34" vType="standard_car" speedFactor="0.99" vaporized=""/>
    <tripinfo id="S_E_35" depart="224.00" departLane="road_1_0_1_1" departPos="5.10" departSpeed="10.00" departDelay="0.00" arrival="283.00" arrivalLane="road_1_1_0_0" arrivalPos="300.00" arrivalSpeed="10.67" duration="59.00" routeLength="603.77" waitingTime="0.00" waitingCount="0" stopTime="0.00" timeLoss="3.31" rerouteNo="0" devices="tripinfo_S_E_35" vType="standard_car" speedFactor="1.02" vaporized=""/>
    <tripinfo id="W_S_36" depart="228.00" departLane="road_0_1_0_2" departPos="5.10" departSpeed="10.00" departDelay="0.00" arrival="287.00" arrivalLane="road_1_1_3_0" arrivalPos="300.00" arrivalSpeed="10.62" duration="59.00" routeLength="603.77" waitingTime="0.00" waitingCount="0" stopTime="0.00" timeLoss="3.82" rerouteNo="0" devices="tripinfo_W_S_36" vType="standard_car" speedFactor="0.97" vaporized=""/>
    <tripinfo id="S_E_37" depart="231.00" departLane="road_1_0_1_1" departPos="5.10" departSpeed="10.00" departDelay="0.00" arrival="290.00" arrivalLane="road_1_1_0_0" arrivalPos="300.00" arrivalSpeed="10.12" duration="59.00" routeLength="603.77" waitingTime="0.00" waitingCount="0" stopTime="0.00" timeLoss="3.53" rerouteNo="0" devices="tripinfo_S_E_37" vType="standard_car" speedFactor="1.18" vaporized=""/>
    <tripinfo id="N_W_39" depart="232.00" departLane="road_1_2_3_2" departPos="5.10" departSpeed="10.00" departDelay="0.00" arrival="292.00" arrivalLane="road_1_1_2_0" arrivalPos="300.00" arrivalSpeed="10.65" duration="60.00" routeLength="603.77" waitingTime="0.00" waitingCount="0" stopTime="0.00" timeLoss="4.37" rerouteNo="0" devices="tripinfo_N_W_39" vType="standard_car" speedFactor="0.90" vaporized=""/>
    <tripinfo id="E_W_33" depart="221.00" departLane="road_2_1_2_2" departPos="5.10" departSpeed="10.00" departDelay="0.00" arrival="306.00" arrivalLane="road_1_1_2_0" arrivalPos="300.00" arrivalSpeed="10.36" duration="85.00" routeLength="621.01" waitingTime="19.00" waitingCount="1" stopTime="0.00" timeLoss="28.36" rerouteNo="0" devices="tripinfo_E_W_33" vType="standard_car" speedFactor="1.17" vaporized=""/>
    <tripinfo id="W_S_41" depart="248.00" departLane="road_0_1_0_0" departPos="5.10" departSpeed="10.00" departDelay="0.00" arrival="307.00" arrivalLane="road_1_1_3_0" arrivalPos="300.00" arrivalSpeed="11.06" duration="59.00" routeLength="603.77" waitingTime="0.00" waitingCount="0" stopTime="0.00" timeLoss="4.13" rerouteNo="0" devices="tripinfo_W_S_41" vType="standard_car" speedFactor="0.96" vaporized=""/>
    <tripinfo id="E_W_38" depart="231.00" departLane="road_2_1_2_1" departPos="5.10" departSpeed="10.00" departDelay="0.00" arrival="308.00" arrivalLane="road_1_1_2_0" arrivalPos="300.00" arrivalSpeed="10.74" duration="77.00" routeLength="621.01" waitingTime="11.00" waitingCount="1" stopTime="0.00" timeLoss="20.15" rerouteNo="0" devices="tripinfo_E_W_38" vType="standard_car" speedFactor="1.10" vaporized=""/>
    <tripinfo id="S_E_42" depart="253.00" departLane="road_1_0_1_1" departPos="5.10" departSpeed="10.00" departDelay="0.00" arrival="311.00" arrivalLane="road_1_1_0_0" arrivalPos="300.00" arrivalSpeed="10.99" duration="58.00" routeLength="603.77" waitingTime="0.00" waitingCount="0" stopTime="0.00" timeLoss="2.71" rerouteNo="0" devices="tripinfo_S_E_42" vType="standard_car" speedFactor="1.09" vaporized=""/>
    <tripinfo id="W_S_45" depart="259.00" departLane="road_0_1_0_0" departPos="5.10" departSpeed="10.00" departDelay="0.00" arrival="318.00" arrivalLane="road_1_1_3_0" arrivalPos="300.00" arrivalSpeed="11.07" duration="59.00" routeLength="603.77" waitingTime="0.00" waitingCount="0" stopTime="0.00" timeLoss="3.79" rerouteNo="0" devices="tripinfo_W_S_45" vType="standard_car" speedFactor="1.09" vaporized=""/>
    <tripinfo id="N_W_46" depart="259.00" departLane="road_1_2_3_1" departPos="5.10" departSpeed="10.00" departDelay="0.00" arrival="318.00" arrivalLane="road_1_1_2_0" arrivalPos="300.00" arrivalSpeed="10.23" duration="59.00" routeLength="603.77" waitingTime="0.00" waitingCount="0" stopTime="0.00" timeLoss="3.76" rerouteNo="0" devices="tripinfo_N_W_46" vType="standard_car" speedFactor="1.00" vaporized=""/>
    <tripinfo id="N_W_47" depart="260.00" departLane="road_1_2_3_0" departPos="5.10" departSpeed="10.00" departDelay="0.00" arrival="321.00" arrivalLane="road_1_1_2_0" arrivalPos="300.00" arrivalSpeed="10.35" duration="61.00" routeLength="603.77" waitingTime="0.00" waitingCount="0" stopTime="0.00" timeLoss="5.13" rerouteNo="0" devices="tripinfo_N_W_47" vType="standard_car" speedFactor="0.90" vaporized=""/>
    <tripinfo id="W_S_49" depart="266.00" departLane="road_0_1_0_2" departPos="5.10" departSpeed="10.00" departDelay="0.00" arrival="325.00" arrivalLane="road_1_1_3_0" arrivalPos="300.00" arrivalSpeed="10.36" duration="59.00" routeLength="603.77" waitingTime="0.00" waitingCount="0" stopTime="0.00" timeLoss="4.06" rerouteNo="0" devices="tripinfo_W_S_49" vType="standard_car" speedFactor="0.85" vaporized=""/>
    <tripinfo id="N_W_50" depart="267.00" departLane="road_1_2_3_2" departPos="5.10" departSpeed="10.00" departDelay="0.00" arrival="327.00" arrivalLane="road_1_1_2_0" arrivalPos="300.00" arrivalSpeed="10.31" duration="60.00" routeLength="603.77" waitingTime="0.00" waitingCount="0" stopTime="0.00" timeLoss="4.34" rerouteNo="0" devices="tripinfo_N_W_50" vType="standard_car" speedFactor="0.85" vaporized=""/>
    <tripinfo id="E_W_51" depart="269.00" departLane="road_2_1_2_2" departPos="5.10" departSpeed="10.00" departDelay="0.00" arrival="328.00" arrivalLane="road_1_1_2_1" arrivalPos="300.00" arrivalSpeed="10.66" duration="59.00" routeLength="621.01" waitingTime="0.00" waitingCount="0" stopTime="0.00" timeLoss="2.35" rerouteNo="0" devices="tripinfo_E_W_51" vType="standard_car" speedFactor="1.17" vaporized=""/>
    <tripinfo id="E_N_52" depart="272.00" departLane="road_2_1_2_1" departPos="5.10" departSpeed="10.00" departDelay="0.00" arrival="331.00" arrivalLane="road_1_1_1_0" arrivalPos="300.00" arrivalSpeed="10.15" duration="59.00" routeLength="603.77" waitingTime="0.00" waitingCount="0" stopTime="0.00" timeLoss="3.69" rerouteNo="0" devices="tripinfo_E_N_52" vType="standard_car" speedFactor="1.02" vaporized=""/>
    <tripinfo id="S_E_54" depart="278.00" departLane="road_1_0_1_1" departPos="5.10" departSpeed="10.00" departDelay="0.00" arrival="337.00" arrivalLane="road_1_1_0_0" arrivalPos="300.00" arrivalSpeed="11.06" duration="59.00" routeLength="603.77" waitingTime="0.00" waitingCount="0" stopTime="0.00" timeLoss="3.65" rerouteNo="0" devices="tripinfo_S_E_54" vType="standard_car" speedFactor="1.00" vaporized=""/>
    <tripinfo id="S_N_48" depart="265.00" departLane="road_1_0_1_0" departPos="5.10" departSpeed="10.00" departDelay="0.00" arrival="339.00" arrivalLane="road_1_1_1_0" arrivalPos="300.00" arrivalSpeed="10.39" duration="74.00" routeLength="621.01" waitingTime="10.00" waitingCount="1" stopTime="0.00" timeLoss="18.09" rerouteNo="0" devices="tripinfo_S_N_48" vType="standard_car" speedFactor="0.88" vaporized=""/>
    <tripinfo id="W_E_44" depart="257.00" departLane="road_0_1_0_1" departPos="5.10" departSpeed="10.00" departDelay="0.00" arrival="341.00" arrivalLane="road_1_1_0_0" arrivalPos="300.00" arrivalSpeed="10.85" duration="84.00" routeLength="621.01" waitingTime="20.00" waitingCount="1" stopTime="0.00" timeLoss="27.71" rerouteNo="0" devices="tripinfo_W_E_44" vType="standard_car" speedFactor="1.04" vaporized=""/>
    <tripinfo id="W_E_53" depart="274.00" departLane="road_0_1_0_2" departPos="5.10" departSpeed="10.00" departDelay="0.00" arrival="343.00" arrivalLane="road_1_1_0_0" arrivalPos="300.00" arrivalSpeed="10.45" duration="69.00" routeLength="621.01" waitingTime="4.00" waitingCount="1" stopTime="0.00" timeLoss="12.62" rerouteNo="0" devices="tripinfo_W_E_53" vType="standard_car" speedFactor="1.10" vaporized=""/>
    <tripinfo id="E_N_55" depart="285.00" departLane="road_2_1_2_2" departPos="5.10" departSpeed="10.00" departDelay="0.00" arrival="344.00" arrivalLane="road_1_1_1_0" arrivalPos="300.00" arrivalSpeed="10.35" duration="59.00" routeLength="603.77" waitingTime="0.00" waitingCount="0" stopTime="0.00" timeLoss="3.92" rerouteNo="0" devices="tripinfo_E_N_55" vType="standard_car" speedFactor="1.00" vaporized=""/>
    <tripinfo id="W_E_56" depart="290.00" departLane="road_0_1_0_2" departPos="5.10" departSpeed="10.00" departDelay="0.00" arrival="349.00" arrivalLane="road_1_1_0_0" arrivalPos="300.00" arrivalSpeed="10.41" duration="59.00" routeLength="621.01" waitingTime="0.00" waitingCount="0" stopTime="0.00" timeLoss="2.45" rerouteNo="0" devices="tripinfo_W_E_56" vType="standard_car" speedFactor="0.90" vaporized=""/>
    <tripinfo id="S_E_58" depart="292.00" departLane="road_1_0_1_2" departPos="5.10" departSpeed="10.00" departDelay="0.00" arrival="351.00" arrivalLane="road_1_1_0_0" arrivalPos="300.00" arrivalSpeed="10.57" duration="59.00" routeLength="603.77" waitingTime="0.00" waitingCount="0" stopTime="0.00" timeLoss="3.98" rerouteNo="0" devices="tripinfo_S_E_58" vType="standard_car" speedFactor="1.02" vaporized=""/>
    <tripinfo id="E_N_59" depart="296.00" departLane="road_2_1_2_0" departPos="5.10" departSpeed="10.00" departDelay="0.00" arrival="355.00" arrivalLane="road_1_1_1_0" arrivalPos="300.00" arrivalSpeed="10.86" duration="59.00" routeLength="603.77" waitingTime="0.00" waitingCount="0" stopTime="0.00" timeLoss="4.01" rerouteNo="0" devices="tripinfo_E_N_59" vType="standard_car" speedFactor="0.97" vaporized=""/>
    <tripinfo id="N_W_60" depart="297.00" departLane="road_1_2_3_2" departPos="5.10" departSpeed="10.00" departDelay="0.00" arrival="356.00" arrivalLane="road_1_1_2_0" arrivalPos="300.00" arrivalSpeed="10.23" duration="59.00" routeLength="603.77" waitingTime="0.00" waitingCount="0" stopTime="0.00" timeLoss="3.73" rerouteNo="0" devices="tripinfo_N_W_60" vType="standard_car" speedFactor="1.08" vaporized=""/>
    <tripinfo id="S_E_61" depart="297.00" departLane="road_1_0_1_2" departPos="5.10" departSpeed="10.00" departDelay="0.00" arrival="356.00" arrivalLane="road_1_1_0_0" arrivalPos="300.00" arrivalSpeed="10.81" duration="59.00" routeLength="603.77" waitingTime="0.00" waitingCount="0" stopTime="0.00" timeLoss="3.75" rerouteNo="0" devices="tripinfo_S_E_61" vType="standard_car" speedFactor="1.12" vaporized=""/>
    <tripinfo id="N_W_62" depart="302.00" departLane="road_1_2_3_1" departPos="5.10" departSpeed="10.00" departDelay="0.00" arrival="361.00" arrivalLane="road_1_1_2_0" arrivalPos="300.00" arrivalSpeed="10.64" duration="59.00" routeLength="603.77" waitingTime="0.00" waitingCount="0" stopTime="0.00" timeLoss="3.62" rerouteNo="0" devices="tripinfo_N_W_62" vType="standard_car" speedFactor="1.02" vaporized=""/>
    <tripinfo id="N_W_63" depart="304.00" departLane="road_1_2_3_0" departPos="5.10" departSpeed="10.00" departDelay="0.00" arrival="364.00" arrivalLane="road_1_1_2_0" arrivalPos="300.00" arrivalSpeed="10.89" duration="60.00" routeLength="603.77" waitingTime="0.00" waitingCount="0" stopTime="0.00" timeLoss="4.02" rerouteNo="0" devices="tripinfo_N_W_63" vType="standard_car" speedFactor="0.99" vaporized=""/>
    <tripinfo id="E_N_64" depart="307.00" departLane="road_2_1_2_1" departPos="5.10" departSpeed="10.00" departDelay="0.00" arrival="366.00" arrivalLane="road_1_1_1_0" arrivalPos="300.00" arrivalSpeed="10.23" duration="59.00" routeLength="603.77" waitingTime="0.00" waitingCount="0" stopTime="0.00" timeLoss="4.09" rerouteNo="0" devices="tripinfo_E_N_64" vType="standard_car" speedFactor="0.94" vaporized=""/>
    <tripinfo id="N_W_65" depart="309.00" departLane="road_1_2_3_0" departPos="5.10" departSpeed="10.00" departDelay="0.00" arrival="369.00" arrivalLane="road_1_1_2_0" arrivalPos="300.00" arrivalSpeed="10.50" duration="60.00" routeLength="603.77" waitingTime="0.00" waitingCount="0" stopTime="0.00" timeLoss="4.55" rerouteNo="0" devices="tripinfo_N_W_65" vType="standard_car" speedFactor="0.88" vaporized=""/>
    <tripinfo id="E_N_67" depart="314.00" departLane="road_2_1_2_0" departPos="5.10" departSpeed="10.00" departDelay="0.00" arrival="373.00" arrivalLane="road_1_1_1_0" arrivalPos="300.00" arrivalSpeed="10.43" duration="59.00" routeLength="603.77" waitingTime="0.00" waitingCount="0" stopTime="0.00" timeLoss="4.19" rerouteNo="0" devices="tripinfo_E_N_67" vType="standard_car" speedFactor="0.91" vaporized=""/>
    <tripinfo id="N_S_40" depart="237.00" departLane="road_1_2_3_1" departPos="5.10" departSpeed="10.00" departDelay="0.00" arrival="375.00" arrivalLane="road_1_1_3_1" arrivalPos="300.00" arrivalSpeed="10.39" duration="138.00" routeLength="621.01" waitingTime="72.00" waitingCount="1" stopTime="0.00" timeLoss="81.22" rerouteNo="0" devices="tripinfo_N_S_40" vType="standard_car" speedFactor="1.03" vaporized=""/>
    <tripinfo id="W_S_69" depart="316.00" departLane="road_0_1_0_1" departPos="5.10" departSpeed="10.00" departDelay="0.00" arrival="375.00" arrivalLane="road_1_1_3_0" arrivalPos="300.00" arrivalSpeed="10.69" duration="59.00" routeLength="603.77" waitingTime="0.00" waitingCount="0" stopTime="0.00" timeLoss="3.93" rerouteNo="0" devices="tripinfo_W_S_69" vType="standard_car" speedFactor="1.02" vaporized=""/>
    <tripinfo id="N_S_43" depart="256.00" departLane="road_1_2_3_1" departPos="5.10" departSpeed="10.00" departDelay="0.00" arrival="377.00" arrivalLane="road_1_1_3_1" arrivalPos="300.00" arrivalSpeed="11.07" duration="121.00" routeLength="621.01" waitingTime="56.00" waitingCount="1" stopTime="0.00" timeLoss="64.58" rerouteNo="0" devices="tripinfo_N_S_43" vType="standard_car" speedFactor="1.04" vaporized=""/>
    <tripinfo id="N_S_57" depart="291.00" departLane="road_1_2_3_1" departPos="5.10" departSpeed="10.00" departDelay="0.00" arrival="379.00" arrivalLane="road_1_1_3_0" arrivalPos="300.00" arrivalSpeed="10.47" duration="88.00" routeLength="621.01" waitingTime="22.00" waitingCount="1" stopTime="0.00" timeLoss="31.62" rerouteNo="0" devices="tripinfo_N_S_57" vType="standard_car" speedFactor="1.14" vaporized=""/>
    <tripinfo id="N_S_68" depart="314.00" departLane="road_1_2_3_2" departPos="5.10" departSpeed="10.00" departDelay="0.00" arrival="381.00" arrivalLane="road_1_1_3_0" arrivalPos="300.00" arrivalSpeed="10.34" duration="67.00" routeLength="621.01" waitingTime="1.00" waitingCount="1" stopTime="0.00" timeLoss="10.58" rerouteNo="0" devices="tripinfo_N_S_68" vType="standard_car" speedFactor="1.04" vaporized=""/>
    <tripinfo id="N_S_71" depart="320.00" departLane="road_1_2_3_0" departPos="5.10" departSpeed="10.00" departDelay="0.00" arrival="383.00" arrivalLane="road_1_1_3_0" arrivalPos="300.00" arrivalSpeed="11.11" duration="63.00" routeLength="621.01" waitingTime="0.00" waitingCount="0" stopTime="0.00" timeLoss="6.69" rerouteNo="0" devices="tripinfo_N_S_71" vType="standard_car" speedFactor="0.97" vaporized=""/>