<?xml version="1.0" encoding="UTF-8"?>

<!-- generated on 2022-04-14 20:31:41 by Eclipse SUMO sumo Version 1.10.0
<configuration xmlns:xsi="http://www.w3.org/2001/XMLSchema-instance" xsi:noNamespaceSchemaLocation="http://sumo.dlr.de/xsd/sumoConfiguration.xsd">

    <input>
        <net-file value="../sumoNet/net3.net.xml"/>
        <route-files value="../sumoNet/test3.rou.xml"/>
    </input>

    <output>
        <tripinfo-output value="tripinfo.xml"/>
    </output>

    <time>
        <begin value="0"/>
        <step-length value="1"/>
    </time>

    <processing>
        <time-to-teleport value="-1"/>
        <waiting-time-memory value="15"/>
    </processing>

    <traci_server>
        <remote-port value="51663"/>
    </traci_server>

    <gui_only>
        <quit-on-end value="true"/>
        <start value="true"/>
        <tracker-interval value="1"/>
    </gui_only>

</configuration>
-->

<tripinfos xmlns:xsi="http://www.w3.org/2001/XMLSchema-instance" xsi:noNamespaceSchemaLocation="http://sumo.dlr.de/xsd/tripinfo_file.xsd">
    <tripinfo id="S_E_0" depart="7.00" departLane="gneE7_2" departPos="3.10" departSpeed="10.00" departDelay="0.00" arrival="55.00" arrivalLane="-gneE4_0" arrivalPos="150.00" arrivalSpeed="14.26" duration="48.00" routeLength="611.83" waitingTime="0.00" waitingCount="0" stopTime="0.00" timeLoss="5.33" rerouteNo="0" devices="tripinfo_S_E_0" vType="standard_car" speedFactor="1.06" vaporized=""/>
    <tripinfo id="N_S_2" depart="32.00" departLane="gneE5_2" departPos="3.10" departSpeed="10.00" departDelay="0.00" arrival="80.00" arrivalLane="-gneE7_0" arrivalPos="150.00" arrivalSpeed="13.97" duration="48.00" routeLength="628.96" waitingTime="0.00" waitingCount="0" stopTime="0.00" timeLoss="2.41" rerouteNo="0" devices="tripinfo_N_S_2" vType="standard_car" speedFactor="1.01" vaporized=""/>
    <tripinfo id="S_E_1" depart="29.00" departLane="gneE7_1" departPos="3.10" departSpeed="10.00" departDelay="0.00" arrival="81.00" arrivalLane="-gneE4_0" arrivalPos="150.00" arrivalSpeed="12.76" duration="52.00" routeLength="611.83" waitingTime="0.00" waitingCount="0" stopTime="0.00" timeLoss="4.29" rerouteNo="0" devices="tripinfo_S_E_1" vType="standard_car" speedFactor="0.94" vaporized=""/>
    <tripinfo id="E_W_3" depart="36.00" departLane="gneE4_0" departPos="3.10" departSpeed="10.00" departDelay="0.00" arrival="103.00" arrivalLane="-gneE6_0" arrivalPos="150.00" arrivalSpeed="14.65" duration="67.00" routeLength="628.96" waitingTime="13.00" waitingCount="1" stopTime="0.00" timeLoss="25.01" rerouteNo="0" devices="tripinfo_E_W_3" vType="standard_car" speedFactor="1.08" vaporized=""/>
    <tripinfo id="E_W_4" depart="44.00" departLane="gneE4_2" departPos="3.10" departSpeed="10.00" departDelay="0.00" arrival="105.00" arrivalLane="-gneE6_1" arrivalPos="150.00" arrivalSpeed="13.88" duration="61.00" routeLength="628.96" waitingTime="4.00" waitingCount="1" stopTime="0.00" timeLoss="16.86" rerouteNo="0" devices="tripinfo_E_W_4" vType="standard_car" speedFactor="1.03" vaporized=""/>
    <tripinfo id="E_N_5" depart="48.00" departLane="gneE4_1" departPos="3.10" departSpeed="10.00" departDelay="0.00" arrival="109.00" arrivalLane="-gneE5_0" arrivalPos="150.00" arrivalSpeed="11.45" duration="61.00" routeLength="611.83" waitingTime="0.00" waitingCount="0" stopTime="0.00" timeLoss="6.41" rerouteNo="0" devices="tripinfo_E_N_5" vType="standard_car" speedFactor="0.83" vaporized=""/>
    <tripinfo id="E_N_11" depart="69.00" departLane="gneE4_0" departPos="3.10" departSpeed="10.00" departDelay="0.00" arrival="117.00" arrivalLane="-gneE5_0" arrivalPos="150.00" arrivalSpeed="14.03" duration="48.00" routeLength="611.83" waitingTime="0.00" waitingCount="0" stopTime="0.00" timeLoss="4.50" rerouteNo="0" devices="tripinfo_E_N_11" vType="standard_car" speedFactor="1.03" vaporized=""/>
    <tripinfo id="N_S_10" depart="62.00" departLane="gneE5_0" departPos="3.10" departSpeed="10.00" departDelay="0.00" arrival="123.00" arrivalLane="-gneE7_0" arrivalPos="150.00" arrivalSpeed="14.80" duration="61.00" routeLength="628.96" waitingTime="4.00" waitingCount="1" stopTime="0.00" timeLoss="18.16" rerouteNo="0" devices="tripinfo_N_S_10" vType="standard_car" speedFactor="1.09" vaporized=""/>
    <tripinfo id="N_S_8" depart="59.00" departLane="gneE5_2" departPos="3.10" departSpeed="10.00" departDelay="0.00" arrival="124.00" arrivalLane="-gneE7_0" arrivalPos="150.00" arrivalSpeed="12.76" duration="65.00" routeLength="628.96" waitingTime="5.00" waitingCount="1" stopTime="0.00" timeLoss="16.62" rerouteNo="0" devices="tripinfo_N_S_8" vType="standard_car" speedFactor="0.94" vaporized=""/>
    <tripinfo id="N_S_13" depart="77.00" departLane="gneE5_0" departPos="3.10" departSpeed="10.00" departDelay="0.00" arrival="124.00" arrivalLane="-gneE7_1" arrivalPos="150.00" arrivalSpeed="14.64" duration="47.00" routeLength="628.96" waitingTime="0.00" waitingCount="0" stopTime="0.00" timeLoss="4.84" rerouteNo="0" devices="tripinfo_N_S_13" vType="standard_car" speedFactor="1.12" vaporized=""/>
    <tripinfo id="N_W_9" depart="60.00" departLane="gneE5_0" departPos="3.10" departSpeed="10.00" departDelay="0.00" arrival="127.00" arrivalLane="-gneE6_0" arrivalPos="150.00" arrivalSpeed="11.43" duration="67.00" routeLength="611.83" waitingTime="4.00" waitingCount="1" stopTime="0.00" timeLoss="14.32" rerouteNo="0" devices="tripinfo_N_W_9" vType="standard_car" speedFactor="0.86" vaporized=""/>
    <tripinfo id="W_E_6" depart="53.00" departLane="gneE6_1" departPos="3.10" departSpeed="10.00" departDelay="0.00" arrival="141.00" arrivalLane="-gneE4_0" arrivalPos="150.00" arrivalSpeed="14.50" duration="88.00" routeLength="628.96" waitingTime="31.00" waitingCount="1" stopTime="0.00" timeLoss="44.02" rerouteNo="0" devices="tripinfo_W_E_6" vType="standard_car" speedFactor="1.05" vaporized=""/>
    <tripinfo id="N_W_15" depart="88.00" departLane="gneE5_2" departPos="3.10" departSpeed="10.00" departDelay="0.00" arrival="141.00" arrivalLane="-gneE6_0" arrivalPos="150.00" arrivalSpeed="12.83" duration="53.00" routeLength="611.83" waitingTime="0.00" waitingCount="0" stopTime="0.00" timeLoss="4.16" rerouteNo="0" devices="tripinfo_N_W_15" vType="standard_car" speedFactor="0.93" vaporized=""/>
    <tripinfo id="W_S_7" depart="55.00" departLane="gneE6_1" departPos="3.10" departSpeed="10.00" departDelay="2.00" arrival="144.00" arrivalLane="-gneE7_0" arrivalPos="150.00" arrivalSpeed="12.20" duration="89.00" routeLength="611.83" waitingTime="28.00" waitingCount="1" stopTime="0.00" timeLoss="37.66" rerouteNo="0" devices="tripinfo_W_S_7" vType="standard_car" speedFactor="0.89" vaporized=""/>
    <tripinfo id="S_E_17" depart="91.00" departLane="gneE7_1" departPos="3.10" departSpeed="10.00" departDelay="0.00" arrival="145.00" arrivalLane="-gneE4_0" arrivalPos="150.00" arrivalSpeed="12.79" duration="54.00" routeLength="611.83" waitingTime="0.00" waitingCount="0" stopTime="0.00" timeLoss="5.91" rerouteNo="0" devices="tripinfo_S_E_17" vType="standard_car" speedFactor="0.94" vaporized=""/>
    <tripinfo id="W_S_18" depart="92.00" departLane="gneE6_1" departPos="3.10" departSpeed="10.00" departDelay="0.00" arrival="145.00" arrivalLane="-gneE7_0" arrivalPos="150.00" arrivalSpeed="12.73" duration="53.00" routeLength="611.83" waitingTime="0.00" waitingCount="0" stopTime="0.00" timeLoss="5.15" rerouteNo="0" devices="tripinfo_W_S_18" vType="standard_car" speedFactor="0.94" vaporized=""/>
    <tripinfo id="N_W_16" depart="91.00" departLane="gneE5_0" departPos="3.10" departSpeed="10.00" departDelay="0.00" arrival="146.00" arrivalLane="-gneE6_0" arrivalPos="150.00" arrivalSpeed="11.86" duration="55.00" routeLength="611.83" waitingTime="0.00" waitingCount="0" stopTime="0.00" timeLoss="3.68" rerouteNo="0" devices="tripinfo_N_W_16" vType="standard_car" speedFactor="0.88" vaporized=""/>
    <tripinfo id="N_W_20" depart="99.00" departLane="gneE5_0" departPos="3.10" departSpeed="10.00" departDelay="0.00" arrival="148.00" arrivalLane="-gneE6_0" arrivalPos="150.00" arrivalSpeed="13.86" duration="49.00" routeLength="611.83" waitingTime="0.00" waitingCount="0" stopTime="0.00" timeLoss="4.62" rerouteNo="0" devices="tripinfo_N_W_20" vType="standard_car" speedFactor="1.02" vaporized=""/>
    <tripinfo id="E_W_12" depart="71.00" departLane="gneE4_2" departPos="3.10" departSpeed="10.00" departDelay="0.00" arrival="159.00" arrivalLane="-gneE6_0" arrivalPos="150.00" arrivalSpeed="14.20" duration="88.00" routeLength="628.96" waitingTime="31.00" waitingCount="1" stopTime="0.00" timeLoss="43.80" rerouteNo="0" devices="tripinfo_E_W_12" vType="standard_car" speedFactor="1.05" vaporized=""/>
    <tripinfo id="E_N_14" depart="87.00" departLane="gneE4_1" departPos="3.10" departSpeed="10.00" departDelay="0.00" arrival="160.00" arrivalLane="-gneE5_0" arrivalPos="150.00" arrivalSpeed="13.68" duration="73.00" routeLength="611.83" waitingTime="15.00" waitingCount="1" stopTime="0.00" timeLoss="27.28" rerouteNo="0" devices="tripinfo_E_N_14" vType="standard_car" speedFactor="0.99" vaporized=""/>
    <tripinfo id="S_N_19" depart="98.00" departLane="gneE7_2" departPos="3.10" departSpeed="10.00" departDelay="0.00" arrival="176.00" arrivalLane="-gneE5_0" arrivalPos="150.00" arrivalSpeed="14.67" duration="78.00" routeLength="628.96" waitingTime="23.00" waitingCount="1" stopTime="0.00" timeLoss="35.97" rerouteNo="0" devices="tripinfo_S_N_19" vType="standard_car" speedFactor="1.16" vaporized=""/>
    <tripinfo id="N_W_24" depart="117.00" departLane="gneE5_1" departPos="3.10" departSpeed="10.00" departDelay="0.00" arrival="176.00" arrivalLane="-gneE6_0" arrivalPos="150.00" arrivalSpeed="11.00" duration="59.00" routeLength="611.83" waitingTime="0.00" waitingCount="0" stopTime="0.00" timeLoss="4.31" rerouteNo="0" devices="tripinfo_N_W_24" vType="standard_car" speedFactor="0.83" vaporized=""/>
    <tripinfo id="S_E_22" depart="111.00" departLane="gneE7_2" departPos="3.10" departSpeed="10.00" departDelay="0.00" arrival="178.00" arrivalLane="-gneE4_0" arrivalPos="150.00" arrivalSpeed="13.31" duration="67.00" routeLength="611.83" waitingTime="10.00" waitingCount="1" stopTime="0.00" timeLoss="20.45" rerouteNo="0" devices="tripinfo_S_E_22" vType="standard_car" speedFactor="0.98" vaporized=""/>
    <tripinfo id="S_E_23" depart="114.00" departLane="gneE7_0" departPos="3.10" departSpeed="10.00" departDelay="0.00" arrival="182.00" arrivalLane="-gneE4_0" arrivalPos="150.00" arrivalSpeed="12.04" duration="68.00" routeLength="611.83" waitingTime="6.00" waitingCount="1" stopTime="0.00" timeLoss="16.94" rerouteNo="0" devices="tripinfo_S_E_23" vType="standard_car" speedFactor="0.89" vaporized=""/>
    <tripinfo id="E_N_26" depart="127.00" departLane="gneE4_1" departPos="3.10" departSpeed="10.00" departDelay="0.00" arrival="182.00" arrivalLane="-gneE5_0" arrivalPos="150.00" arrivalSpeed="12.25" duration="55.00" routeLength="611.83" waitingTime="0.00" waitingCount="0" stopTime="0.00" timeLoss="5.48" rerouteNo="0" devices="tripinfo_E_N_26" vType="standard_car" speedFactor="0.92" vaporized=""/>
    <tripinfo id="E_N_27" depart="130.00" departLane="gneE4_0" departPos="3.10" departSpeed="10.00" departDelay="0.00" arrival="183.00" arrivalLane="-gneE5_0" arrivalPos="150.00" arrivalSpeed="13.11" duration="53.00" routeLength="611.83" waitingTime="0.00" waitingCount="0" stopTime="0.00" timeLoss="5.41" rerouteNo="0" devices="tripinfo_E_N_27" vType="standard_car" speedFactor="0.95" vaporized=""/>
    <tripinfo id="S_E_25" depart="125.00" departLane="gneE7_2" departPos="3.10" departSpeed="10.00" departDelay="0.00" arrival="184.00" arrivalLane="-gneE4_0" arrivalPos="150.00" arrivalSpeed="11.94" duration="59.00" routeLength="611.83" waitingTime="0.00" waitingCount="0" stopTime="0.00" timeLoss="7.11" rerouteNo="0" devices="tripinfo_S_E_25" vType="standard_car" speedFactor="0.87" vaporized=""/>
    <tripinfo id="S_E_29" depart="136.00" departLane="gneE7_0" departPos="3.10" departSpeed="10.00" departDelay="0.00" arrival="189.00" arrivalLane="-gneE4_0" arrivalPos="150.00" arrivalSpeed="12.71" duration="53.00" routeLength="611.83" waitingTime="0.00" waitingCount="0" stopTime="0.00" timeLoss="4.18" rerouteNo="0" devices="tripinfo_S_E_29" vType="standard_car" speedFactor="0.93" vaporized=""/>
    <tripinfo id="W_E_31" depart="148.00" departLane="gneE6_2" departPos="3.10" departSpeed="10.00" departDelay="0.00" arrival="192.00" arrivalLane="-gneE4_1" arrivalPos="150.00" arrivalSpeed="14.99" duration="44.00" routeLength="628.96" waitingTime="0.00" waitingCount="0" stopTime="0.00" timeLoss="1.50" rerouteNo="0" devices="tripinfo_W_E_31" vType="standard_car" speedFactor="1.15" vaporized=""/>
    <tripinfo id="W_E_28" depart="131.00" departLane="gneE6_1" departPos="3.10" departSpeed="10.00" departDelay="0.00" arrival="194.00" arrivalLane="-gneE4_1" arrivalPos="150.00" arrivalSpeed="14.79" duration="63.00" routeLength="628.96" waitingTime="8.00" waitingCount="1" stopTime="0.00" timeLoss="20.67" rerouteNo="0" devices="tripinfo_W_E_28" vType="standard_car" speedFactor="1.13" vaporized=""/>
    <tripinfo id="W_E_21" depart="110.00" departLane="gneE6_0" departPos="3.10" departSpeed="10.00" departDelay="0.00" arrival="195.00" arrivalLane="-gneE4_0" arrivalPos="150.00" arrivalSpeed="13.61" duration="85.00" routeLength="628.96" waitingTime="28.00" waitingCount="1" stopTime="0.00" timeLoss="39.89" rerouteNo="0" devices="tripinfo_W_E_21" vType="standard_car" speedFactor="1.01" vaporized=""/>
    <tripinfo id="S_E_30" depart="144.00" departLane="gneE7_2" departPos="3.10" departSpeed="10.00" departDelay="0.00" arrival="201.00" arrivalLane="-gneE4_0" arrivalPos="150.00" arrivalSpeed="14.80" duration="57.00" routeLength="611.83" waitingTime="2.00" waitingCount="1" stopTime="0.00" timeLoss="15.72" rerouteNo="0" devices="tripinfo_S_E_30" vType="standard_car" speedFactor="1.18" vaporized=""/>
    <tripinfo id="S_E_33" depart="153.00" departLane="gneE7_2" departPos="3.10" departSpeed="10.00" departDelay="0.00" arrival="203.00" arrivalLane="-gneE4_0" arrivalPos="150.00" arrivalSpeed="14.99" duration="50.00" routeLength="611.83" waitingTime="0.00" waitingCount="0" stopTime="0.00" timeLoss="8.20" rerouteNo="0" devices="tripinfo_S_E_33" vType="standard_car" speedFactor="1.17" vaporized=""/>
    <tripinfo id="S_E_37" depart="159.00" departLane="gneE7_1" departPos="3.10" departSpeed="10.00" departDelay="0.00" arrival="205.00" arrivalLane="-gneE4_0" arrivalPos="150.00" arrivalSpeed="14.53" duration="46.00" routeLength="611.83" waitingTime="0.00" waitingCount="0" stopTime="0.00" timeLoss="4.19" rerouteNo="0" devices="tripinfo_S_E_37" vType="standard_car" speedFactor="1.18" vaporized=""/>
    <tripinfo id="S_N_32" depart="148.00" departLane="gneE7_1" departPos="3.10" departSpeed="10.00" departDelay="0.00" arrival="213.00" arrivalLane="-gneE5_0" arrivalPos="150.00" arrivalSpeed="13.84" duration="65.00" routeLength="628.96" waitingTime="8.00" waitingCount="1" stopTime="0.00" timeLoss="19.69" rerouteNo="0" devices="tripinfo_S_N_32" vType="standard_car" speedFactor="1.01" vaporized=""/>
    <tripinfo id="S_E_42" depart="169.00" departLane="gneE7_1" departPos="3.10" departSpeed="10.00" departDelay="0.00" arrival="216.00" arrivalLane="-gneE4_0" arrivalPos="150.00" arrivalSpeed="14.64" duration="47.00" routeLength="611.83" waitingTime="0.00" waitingCount="0" stopTime="0.00" timeLoss="4.91" rerouteNo="0" devices="tripinfo_S_E_42" vType="standard_car" speedFactor="1.09" vaporized=""/>
    <tripinfo id="E_W_34" depart="154.00" departLane="gneE4_1" departPos="3.10" departSpeed="10.00" departDelay="0.00" arrival="231.00" arrivalLane="-gneE6_0" arrivalPos="150.00" arrivalSpeed="13.75" duration="77.00" routeLength="628.96" waitingTime="18.00" waitingCount="1" stopTime="0.00" timeLoss="31.17" rerouteNo="0" devices="tripinfo_E_W_34" vType="standard_car" speedFactor="0.99" vaporized=""/>
    <tripinfo id="E_W_43" depart="169.00" departLane="gneE4_1" departPos="3.10" departSpeed="10.00" departDelay="0.00" arrival="231.00" arrivalLane="-gneE6_2" arrivalPos="150.00" arrivalSpeed="13.94" duration="62.00" routeLength="628.96" waitingTime="4.00" waitingCount="1" stopTime="0.00" timeLoss="17.73" rerouteNo="0" devices="tripinfo_E_W_43" vType="standard_car" speedFactor="1.04" vaporized=""/>
    <tripinfo id="E_W_44" depart="171.00" departLane="gneE4_0" departPos="3.10" departSpeed="10.00" departDelay="1.00" arrival="232.00" arrivalLane="-gneE6_0" arrivalPos="150.00" arrivalSpeed="14.12" duration="61.00" routeLength="628.96" waitingTime="4.00" waitingCount="1" stopTime="0.00" timeLoss="17.59" rerouteNo="0" devices="tripinfo_E_W_44" vType="standard_car" speedFactor="1.04" vaporized=""/>
    <tripinfo id="E_W_39" depart="163.00" departLane="gneE4_2" departPos="3.10" departSpeed="10.00" departDelay="0.00" arrival="233.00" arrivalLane="-gneE6_0" arrivalPos="150.00" arrivalSpeed="12.15" duration="70.00" routeLength="628.96" waitingTime="9.00" waitingCount="1" stopTime="0.00" timeLoss="18.94" rerouteNo="0" devices="tripinfo_E_W_39" vType="standard_car" speedFactor="0.90" vaporized=""/>
    <tripinfo id="E_N_49" depart="179.00" departLane="gneE4_2" departPos="3.10" departSpeed="10.00" departDelay="0.00" arrival="236.00" arrivalLane="-gneE5_0" arrivalPos="150.00" arrivalSpeed="11.73" duration="57.00" routeLength="611.83" waitingTime="0.00" waitingCount="0" stopTime="0.00" timeLoss="3.96" rerouteNo="0" devices="tripinfo_E_N_49" vType="standard_car" speedFactor="0.85" vaporized=""/>
    <tripinfo id="E_N_51" depart="189.00" departLane="gneE4_1" departPos="3.10" departSpeed="10.00" departDelay="0.00" arrival="238.00" arrivalLane="-gneE5_0" arrivalPos="150.00" arrivalSpeed="13.17" duration="49.00" routeLength="611.83" waitingTime="0.00" waitingCount="0" stopTime="0.00" timeLoss="6.47" rerouteNo="0" devices="tripinfo_E_N_51" vType="standard_car" speedFactor="1.17" vaporized=""/>
    <tripinfo id="W_S_38" depart="162.00" departLane="gneE6_1" departPos="3.10" departSpeed="10.00" departDelay="0.00" arrival="248.00" arrivalLane="-gneE7_0" arrivalPos="150.00" arrivalSpeed="14.82" duration="86.00" routeLength="611.83" waitingTime="32.00" waitingCount="1" stopTime="0.00" timeLoss="44.70" rerouteNo="0" devices="tripinfo_W_S_38" vType="standard_car" speedFactor="1.10" vaporized=""/>
    <tripinfo id="W_E_45" depart="172.00" departLane="gneE6_1" departPos="3.10" departSpeed="10.00" departDelay="0.00" arrival="248.00" arrivalLane="-gneE4_0" arrivalPos="150.00" arrivalSpeed="14.72" duration="76.00" routeLength="628.96" waitingTime="20.00" waitingCount="1" stopTime="0.00" timeLoss="33.19" rerouteNo="0" devices="tripinfo_W_E_45" vType="standard_car" speedFactor="1.09" vaporized=""/>
    <tripinfo id="W_E_53" depart="192.00" departLane="gneE6_1" departPos="3.10" departSpeed="10.00" departDelay="0.00" arrival="248.00" arrivalLane="-gneE4_2" arrivalPos="150.00" arrivalSpeed="14.71" duration="56.00" routeLength="628.96" waitingTime="0.00" waitingCount="0" stopTime="0.00" timeLoss="13.68" rerouteNo="0" devices="tripinfo_W_E_53" vType="standard_car" speedFactor="1.10" vaporized=""/>
    <tripinfo id="W_E_61" depart="204.00" departLane="gneE6_1" departPos="3.10" departSpeed="10.00" departDelay="0.00" arrival="248.00" arrivalLane="-gneE4_1" arrivalPos="150.00" arrivalSpeed="14.69" duration="44.00" routeLength="628.96" waitingTime="0.00" waitingCount="0" stopTime="0.00" timeLoss="2.03" rerouteNo="0" devices="tripinfo_W_E_61" vType="standard_car" speedFactor="1.12" vaporized=""/>
    <tripinfo id="W_E_35" depart="156.00" departLane="gneE6_1" departPos="3.10" departSpeed="10.00" departDelay="0.00" arrival="250.00" arrivalLane="-gneE4_0" arrivalPos="150.00" arrivalSpeed="14.16" duration="94.00" routeLength="628.96" waitingTime="35.00" waitingCount="1" stopTime="0.00" timeLoss="49.43" rerouteNo="0" devices="tripinfo_W_E_35" vType="standard_car" speedFactor="1.02" vaporized=""/>
    <tripinfo id="E_N_56" depart="197.00" departLane="gneE4_1" departPos="3.10" departSpeed="10.00" departDelay="0.00" arrival="251.00" arrivalLane="-gneE5_0" arrivalPos="150.00" arrivalSpeed="12.34" duration="54.00" routeLength="611.83" waitingTime="0.00" waitingCount="0" stopTime="0.00" timeLoss="4.00" rerouteNo="0" devices="tripinfo_E_N_56" vType="standard_car" speedFactor="0.90" vaporized=""/>
    <tripinfo id="W_S_47" depart="178.00" departLane="gneE6_0" departPos="3.10" departSpeed="10.00" departDelay="0.00" arrival="253.00" arrivalLane="-gneE7_0" arrivalPos="150.00" arrivalSpeed="12.43" duration="75.00" routeLength="611.83" waitingTime="15.00" waitingCount="1" stopTime="0.00" timeLoss="25.00" rerouteNo="0" devices="tripinfo_W_S_47" vType="standard_car" speedFactor="0.90" vaporized=""/>
    <tripinfo id="W_S_50" depart="188.00" departLane="gneE6_2" departPos="3.10" departSpeed="10.00" departDelay="0.00" arrival="256.00" arrivalLane="-gneE7_0" arrivalPos="150.00" arrivalSpeed="11.43" duration="68.00" routeLength="611.83" waitingTime="5.00" waitingCount="1" stopTime="0.00" timeLoss="15.38" rerouteNo="0" devices="tripinfo_W_S_50" vType="standard_car" speedFactor="0.85" vaporized=""/>
    <tripinfo id="W_S_59" depart="200.00" departLane="gneE6_2" departPos="3.10" departSpeed="10.00" departDelay="0.00" arrival="256.00" arrivalLane="-gneE7_1" arrivalPos="150.00" arrivalSpeed="13.19" duration="56.00" routeLength="611.83" waitingTime="0.00" waitingCount="0" stopTime="0.00" timeLoss="9.34" rerouteNo="0" devices="tripinfo_W_S_59" vType="standard_car" speedFactor="0.97" vaporized=""/>
    <tripinfo id="N_W_40" depart="165.00" departLane="gneE5_1" departPos="3.10" departSpeed="10.00" departDelay="0.00" arrival="267.00" arrivalLane="-gneE6_0" arrivalPos="150.00" arrivalSpeed="14.30" duration="102.00" routeLength="611.83" waitingTime="46.00" waitingCount="1" stopTime="0.00" timeLoss="58.11" rerouteNo="0" devices="tripinfo_N_W_40" vType="standard_car" speedFactor="1.03" vaporized=""/>
    <tripinfo id="N_S_52" depart="191.00" departLane="gneE5_2" departPos="3.10" departSpeed="10.00" departDelay="0.00" arrival="267.00" arrivalLane="-gneE7_2" arrivalPos="150.00" arrivalSpeed="13.83" duration="76.00" routeLength="628.96" waitingTime="19.00" waitingCount="1" stopTime="0.00" timeLoss="31.14" rerouteNo="0" devices="tripinfo_N_S_52" vType="standard_car" speedFactor="1.02" vaporized=""/>
    <tripinfo id="N_S_36" depart="157.00" departLane="gneE5_2" departPos="3.10" departSpeed="10.00" departDelay="0.00" arrival="268.00" arrivalLane="-gneE7_0" arrivalPos="150.00" arrivalSpeed="13.14" duration="111.00" routeLength="628.96" waitingTime="51.00" waitingCount="1" stopTime="0.00" timeLoss="63.73" rerouteNo="0" devices="tripinfo_N_S_36" vType="standard_car" speedFactor="0.97" vaporized=""/>
    <tripinfo id="N_S_41" depart="167.00" departLane="gneE5_0" departPos="3.10" departSpeed="10.00" departDelay="0.00" arrival="268.00" arrivalLane="-gneE7_1" arrivalPos="150.00" arrivalSpeed="12.81" duration="101.00" routeLength="628.96" waitingTime="42.00" waitingCount="1" stopTime="0.00" timeLoss="53.15" rerouteNo="0" devices="tripinfo_N_S_41" vType="standard_car" speedFactor="0.96" vaporized=""/>
    <tripinfo id="N_S_55" depart="193.00" departLane="gneE5_2" departPos="3.10" departSpeed="10.00" departDelay="0.00" arrival="269.00" arrivalLane="-gneE7_1" arrivalPos="150.00" arrivalSpeed="13.42" duration="76.00" routeLength="628.96" waitingTime="18.00" waitingCount="1" stopTime="0.00" timeLoss="30.35" rerouteNo="0" devices="tripinfo_N_S_55" vType="standard_car" speedFactor="1.00" vaporized=""/>
    <tripinfo id="N_S_66" depart="220.00" departLane="gneE5_0" departPos="3.10" departSpeed="10.00" departDelay="0.00" arrival="272.00" arrivalLane="-gneE7_0" arrivalPos="150.00" arrivalSpeed="12.45" duration="52.00" routeLength="628.96" waitingTime="0.00" waitingCount="0" stopTime="0.00" timeLoss="1.28" rerouteNo="0" devices="tripinfo_N_S_66" vType="standard_car" speedFactor="0.91" vaporized=""/>
    <tripinfo id="N_S_70" depart="226.00" departLane="gneE5_0" departPos="3.10" departSpeed="10.00" departDelay="0.00" arrival="272.00" arrivalLane="-gneE7_1" arrivalPos="150.00" arrivalSpeed="13.91" duration="46.00" routeLength="628.96" waitingTime="0.00" waitingCount="0" stopTime="0.00" timeLoss="1.51" rerouteNo="0" devices="tripinfo_N_S_70" vType="standard_car" speedFactor="1.02" vaporized=""/>
    <tripinfo id="N_W_69" depart="222.00" departLane="gneE5_0" departPos="3.10" departSpeed="10.00" departDelay="0.00" arrival="273.00" arrivalLane="-gneE6_0" arrivalPos="150.00" arrivalSpeed="14.16" duration="51.00" routeLength="611.83" waitingTime="0.00" waitingCount="0" stopTime="0.00" timeLoss="6.49" rerouteNo="0" devices="tripinfo_N_W_69" vType="standard_car" speedFactor="1.02" vaporized=""/>
    <tripinfo id="N_W_75" depart="233.00" departLane="gneE5_1" departPos="3.10" departSpeed="10.00" departDelay="0.00" arrival="283.00" arrivalLane="-gneE6_0" arrivalPos="150.00" arrivalSpeed="13.32" duration="50.00" routeLength="611.83" waitingTime="0.00" waitingCount="0" stopTime="0.00" timeLoss="4.15" rerouteNo="0" devices="tripinfo_N_W_75" vType="standard_car" speedFactor="0.98" vaporized=""/>
    <tripinfo id="S_N_46" depart="177.00" departLane="gneE7_0" departPos="3.10" departSpeed="10.00" departDelay="0.00" arrival="285.00" arrivalLane="-gneE5_0" arrivalPos="150.00" arrivalSpeed="13.49" duration="108.00" routeLength="628.96" waitingTime="50.00" waitingCount="1" stopTime="0.00" timeLoss="62.22" rerouteNo="0" devices="tripinfo_S_N_46" vType="standard_car" speedFactor="1.00" vaporized=""/>
    <tripinfo id="S_N_54" depart="193.00" departLane="gneE7_2" departPos="3.10" departSpeed="10.00" departDelay="0.00" arrival="285.00" arrivalLane="-gneE5_1" arrivalPos="150.00" arrivalSpeed="13.46" duration="92.00" routeLength="628.96" waitingTime="34.00" waitingCount="1" stopTime="0.00" timeLoss="46.33" rerouteNo="0" devices="tripinfo_S_N_54" vType="standard_car" speedFactor="1.00" vaporized=""/>
    <tripinfo id="S_N_67" depart="220.00" departLane="gneE7_2" departPos="3.10" departSpeed="10.00" departDelay="0.00" arrival="287.00" arrivalLane="-gneE5_2" arrivalPos="150.00" arrivalSpeed="12.62" duration="67.00" routeLength="628.96" waitingTime="5.00" waitingCount="1" stopTime="0.00" timeLoss="17.34" rerouteNo="0" devices="tripinfo_S_N_67" vType="standard_car" speedFactor="0.91" vaporized=""/>
    <tripinfo id="S_E_48" depart="179.00" departLane="gneE7_2" departPos="3.10" departSpeed="10.00" departDelay="0.00" arrival="288.00" arrivalLane="-gneE4_0" arrivalPos="150.00" arrivalSpeed="11.71" duration="109.00" routeLength="611.83" waitingTime="47.00" waitingCount="1" stopTime="0.00" timeLoss="57.51" rerouteNo="0" devices="tripinfo_S_E_48" vType="standard_car" speedFactor="0.88" vaporized=""/>
    <tripinfo id="S_E_58" depart="199.00" departLane="gneE7_0" departPos="3.10" departSpeed="10.00" departDelay="0.00" arrival="288.00" arrivalLane="-gneE4_1" arrivalPos="150.00" arrivalSpeed="13.92" duration="89.00" routeLength="611.83" waitingTime="31.00" waitingCount="1" stopTime="0.00" timeLoss="44.22" rerouteNo="0" devices="tripinfo_S_E_58" vType="standard_car" speedFactor="1.02" vaporized=""/>
    <tripinfo id="S_N_74" depart="231.00" departLane="gneE7_2" departPos="3.10" departSpeed="10.00" departDelay="0.00" arrival="288.00" arrivalLane="-gneE5_0" arrivalPos="150.00" arrivalSpeed="13.04" duration="57.00" routeLength="628.96" waitingTime="0.00" waitingCount="0" stopTime="0.00" timeLoss="9.04" rerouteNo="0" devices="tripinfo_S_N_74" vType="standard_car" speedFactor="0.96" vaporized=""/>
    <tripinfo id="S_E_60" depart="203.00" departLane="gneE7_2" departPos="3.10" departSpeed="10.00" departDelay="0.00" arrival="290.00" arrivalLane="-gneE4_0" arrivalPos="150.00" arrivalSpeed="13.54" duration="87.00" routeLength="611.83" waitingTime="28.00" waitingCount="1" stopTime="0.00" timeLoss="45.02" rerouteNo="0" devices="tripinfo_S_E_60" vType="standard_car" speedFactor="1.08" vaporized=""/>
    <tripinfo id="S_E_73" depart="230.00" departLane="gneE7_0" departPos="3.10" departSpeed="10.00" departDelay="0.00" arrival="291.00" arrivalLane="-gneE4_0" arrivalPos="150.00" arrivalSpeed="13.43" duration="61.00" routeLength="611.83" waitingTime="3.00" waitingCount="1" stopTime="0.00" timeLoss="18.39" rerouteNo="0" devices="tripinfo_S_E_73" vType="standard_car" speedFactor="1.06" vaporized=""/>
    <tripinfo id="S_E_85" depart="249.00" departLane="gneE7_1" departPos="3.10" departSpeed="10.00" departDelay="0.00" arrival="299.00" arrivalLane="-gneE4_0" arrivalPos="150.00" arrivalSpeed="13.39" duration="50.00" routeLength="611.83" waitingTime="0.00" waitingCount="0" stopTime="0.00" timeLoss="4.26" rerouteNo="0" devices="tripinfo_S_E_85" vType="standard_car" speedFactor="0.98" vaporized=""/>
    <tripinfo id="E_W_57" depart="197.00" departLane="gneE4_2" departPos="3.10" departSpeed="10.00" departDelay="0.00" arrival="302.00" arrivalLane="-gneE6_0" arrivalPos="150.00" arrivalSpeed="14.58" duration="105.00" routeLength="628.96" waitingTime="49.00" waitingCount="1" stopTime="0.00" timeLoss="62.47" rerouteNo="0" devices="tripinfo_E_W_57" vType="standard_car" speedFactor="1.14" vaporized=""/>
    <tripinfo id="E_W_62" depart="213.00" departLane="gneE4_0" departPos="3.10" departSpeed="10.00" departDelay="0.00" arrival="303.00" arrivalLane="-gneE6_0" arrivalPos="150.00" arrivalSpeed="13.67" duration="90.00" routeLength="628.96" waitingTime="32.00" waitingCount="1" stopTime="0.00" timeLoss="45.00" rerouteNo="0" devices="tripinfo_E_W_62" vType="standard_car" speedFactor="1.02" vaporized=""/>
    <tripinfo id="E_W_63" depart="216.00" departLane="gneE4_1" departPos="3.10" departSpeed="10.00" departDelay="0.00" arrival="305.00" arrivalLane="-gneE6_0" arrivalPos="150.00" arrivalSpeed="13.64" duration="89.00" routeLength="628.96" waitingTime="30.00" waitingCount="1" stopTime="0.00" timeLoss="43.10" rerouteNo="0" devices="tripinfo_E_W_63" vType="standard_car" speedFactor="0.99" vaporized=""/>