<?xml version="1.0" encoding="UTF-8"?>

<!-- generated on 2022-05-16 16:18:43 by Eclipse SUMO sumo Version 1.10.0
<configuration xmlns:xsi="http://www.w3.org/2001/XMLSchema-instance" xsi:noNamespaceSchemaLocation="http://sumo.dlr.de/xsd/sumoConfiguration.xsd">

    <input>
        <net-file value="../sumoNet/reality_network/cityflow_data/hangzhou_1x1_bc-tyc_18041607_1h/net.net.xml"/>
        <route-files value="../sumoNet/reality_network/cityflow_data/hangzhou_1x1_bc-tyc_18041607_1h/test.rou.xml"/>
    </input>

    <output>
        <tripinfo-output value="tripinfo.xml"/>
    </output>

    <time>
        <begin value="0"/>
        <step-length value="1"/>
    </time>

    <processing>
        <time-to-teleport value="-1"/>
        <waiting-time-memory value="15"/>
    </processing>

    <traci_server>
        <remote-port value="58978"/>
    </traci_server>

    <gui_only>
        <quit-on-end value="true"/>
        <start value="true"/>
        <tracker-interval value="1"/>
    </gui_only>

</configuration>
-->

<tripinfos xmlns:xsi="http://www.w3.org/2001/XMLSchema-instance" xsi:noNamespaceSchemaLocation="http://sumo.dlr.de/xsd/tripinfo_file.xsd">
    <tripinfo id="E_W_1" depart="16.00" departLane="road_2_1_2_1" departPos="5.10" departSpeed="10.00" departDelay="0.00" arrival="100.00" arrivalLane="road_1_1_2_0" arrivalPos="300.00" arrivalSpeed="11.08" duration="84.00" routeLength="621.01" waitingTime="19.00" waitingCount="1" stopTime="0.00" timeLoss="27.78" rerouteNo="0" devices="tripinfo_E_W_1" vType="standard_car" speedFactor="0.94" vaporized=""/>
    <tripinfo id="W_E_4" depart="27.00" departLane="road_0_1_0_2" departPos="5.10" departSpeed="10.00" departDelay="0.00" arrival="101.00" arrivalLane="road_1_1_0_0" arrivalPos="300.00" arrivalSpeed="10.58" duration="74.00" routeLength="621.01" waitingTime="9.00" waitingCount="1" stopTime="0.00" timeLoss="17.21" rerouteNo="0" devices="tripinfo_W_E_4" vType="standard_car" speedFactor="1.03" vaporized=""/>
    <tripinfo id="E_W_2" depart="22.00" departLane="road_2_1_2_2" departPos="5.10" departSpeed="10.00" departDelay="0.00" arrival="102.00" arrivalLane="road_1_1_2_0" arrivalPos="300.00" arrivalSpeed="10.94" duration="80.00" routeLength="621.01" waitingTime="17.00" waitingCount="1" stopTime="0.00" timeLoss="23.89" rerouteNo="0" devices="tripinfo_E_W_2" vType="standard_car" speedFactor="1.01" vaporized=""/>
    <tripinfo id="W_E_6" depart="30.00" departLane="road_0_1_0_1" departPos="5.10" departSpeed="10.00" departDelay="0.00" arrival="103.00" arrivalLane="road_1_1_0_0" arrivalPos="300.00" arrivalSpeed="10.57" duration="73.00" routeLength="621.01" waitingTime="8.00" waitingCount="1" stopTime="0.00" timeLoss="16.26" rerouteNo="0" devices="tripinfo_W_E_6" vType="standard_car" speedFactor="1.05" vaporized=""/>
    <tripinfo id="E_W_3" depart="24.00" departLane="road_2_1_2_0" departPos="5.10" departSpeed="10.00" departDelay="0.00" arrival="104.00" arrivalLane="road_1_1_2_0" arrivalPos="300.00" arrivalSpeed="10.17" duration="80.00" routeLength="621.01" waitingTime="15.00" waitingCount="1" stopTime="0.00" timeLoss="23.96" rerouteNo="0" devices="tripinfo_E_W_3" vType="standard_car" speedFactor="1.08" vaporized=""/>
    <tripinfo id="W_E_8" depart="34.00" departLane="road_0_1_0_1" departPos="5.10" departSpeed="10.00" departDelay="0.00" arrival="105.00" arrivalLane="road_1_1_0_0" arrivalPos="300.00" arrivalSpeed="10.32" duration="71.00" routeLength="621.01" waitingTime="5.00" waitingCount="1" stopTime="0.00" timeLoss="14.21" rerouteNo="0" devices="tripinfo_W_E_8" vType="standard_car" speedFactor="0.94" vaporized=""/>
    <tripinfo id="E_W_5" depart="29.00" departLane="road_2_1_2_1" departPos="5.10" departSpeed="10.00" departDelay="0.00" arrival="106.00" arrivalLane="road_1_1_2_0" arrivalPos="300.00" arrivalSpeed="10.44" duration="77.00" routeLength="621.01" waitingTime="12.00" waitingCount="1" stopTime="0.00" timeLoss="20.82" rerouteNo="0" devices="tripinfo_E_W_5" vType="standard_car" speedFactor="0.83" vaporized=""/>
    <tripinfo id="W_E_11" depart="42.00" departLane="road_0_1_0_0" departPos="5.10" departSpeed="10.00" departDelay="0.00" arrival="107.00" arrivalLane="road_1_1_0_0" arrivalPos="300.00" arrivalSpeed="10.23" duration="65.00" routeLength="621.01" waitingTime="0.00" waitingCount="0" stopTime="0.00" timeLoss="8.52" rerouteNo="0" devices="tripinfo_W_E_11" vType="standard_car" speedFactor="1.03" vaporized=""/>
    <tripinfo id="E_W_7" depart="34.00" departLane="road_2_1_2_1" departPos="5.10" departSpeed="10.00" departDelay="0.00" arrival="108.00" arrivalLane="road_1_1_2_0" arrivalPos="300.00" arrivalSpeed="10.38" duration="74.00" routeLength="621.01" waitingTime="10.00" waitingCount="1" stopTime="0.00" timeLoss="17.90" rerouteNo="0" devices="tripinfo_E_W_7" vType="standard_car" speedFactor="0.89" vaporized=""/>
    <tripinfo id="W_E_14" depart="46.00" departLane="road_0_1_0_2" departPos="5.10" departSpeed="10.00" departDelay="1.00" arrival="109.00" arrivalLane="road_1_1_0_0" arrivalPos="300.00" arrivalSpeed="10.46" duration="63.00" routeLength="621.01" waitingTime="0.00" waitingCount="0" stopTime="0.00" timeLoss="6.44" rerouteNo="0" devices="tripinfo_W_E_14" vType="standard_car" speedFactor="0.99" vaporized=""/>
    <tripinfo id="W_E_17" depart="56.00" departLane="road_0_1_0_1" departPos="5.10" departSpeed="10.00" departDelay="0.00" arrival="115.00" arrivalLane="road_1_1_0_0" arrivalPos="300.00" arrivalSpeed="10.32" duration="59.00" routeLength="621.01" waitingTime="0.00" waitingCount="0" stopTime="0.00" timeLoss="2.74" rerouteNo="0" devices="tripinfo_W_E_17" vType="standard_car" speedFactor="0.94" vaporized=""/>
    <tripinfo id="E_W_24" depart="64.00" departLane="road_2_1_2_2" departPos="5.10" departSpeed="10.00" departDelay="0.00" arrival="123.00" arrivalLane="road_1_1_2_0" arrivalPos="300.00" arrivalSpeed="10.91" duration="59.00" routeLength="621.01" waitingTime="0.00" waitingCount="0" stopTime="0.00" timeLoss="2.79" rerouteNo="0" devices="tripinfo_E_W_24" vType="standard_car" speedFactor="0.83" vaporized=""/>
    <tripinfo id="W_E_22" depart="63.00" departLane="road_0_1_0_0" departPos="5.10" departSpeed="10.00" departDelay="0.00" arrival="124.00" arrivalLane="road_1_1_0_0" arrivalPos="300.00" arrivalSpeed="10.35" duration="61.00" routeLength="621.01" waitingTime="0.00" waitingCount="0" stopTime="0.00" timeLoss="4.38" rerouteNo="0" devices="tripinfo_W_E_22" vType="standard_car" speedFactor="0.98" vaporized=""/>
    <tripinfo id="N_S_0" depart="1.00" departLane="road_1_2_3_2" departPos="5.10" departSpeed="10.00" departDelay="0.00" arrival="133.00" arrivalLane="road_1_1_3_0" arrivalPos="300.00" arrivalSpeed="10.53" duration="132.00" routeLength="621.01" waitingTime="67.00" waitingCount="1" stopTime="0.00" timeLoss="75.55" rerouteNo="0" devices="tripinfo_N_S_0" vType="standard_car" speedFactor="1.06" vaporized=""/>
    <tripinfo id="S_N_9" depart="34.00" departLane="road_1_0_1_1" departPos="5.10" departSpeed="10.00" departDelay="0.00" arrival="133.00" arrivalLane="road_1_1_1_0" arrivalPos="300.00" arrivalSpeed="11.08" duration="99.00" routeLength="621.01" waitingTime="35.00" waitingCount="1" stopTime="0.00" timeLoss="42.54" rerouteNo="0" devices="tripinfo_S_N_9" vType="standard_car" speedFactor="0.86" vaporized=""/>
    <tripinfo id="S_N_10" depart="38.00" departLane="road_1_0_1_2" departPos="5.10" departSpeed="10.00" departDelay="0.00" arrival="136.00" arrivalLane="road_1_1_1_0" arrivalPos="300.00" arrivalSpeed="10.95" duration="98.00" routeLength="621.01" waitingTime="33.00" waitingCount="1" stopTime="0.00" timeLoss="41.27" rerouteNo="0" devices="tripinfo_S_N_10" vType="standard_car" speedFactor="1.09" vaporized=""/>
    <tripinfo id="S_N_13" depart="43.00" departLane="road_1_0_1_2" departPos="5.10" departSpeed="10.00" departDelay="0.00" arrival="137.00" arrivalLane="road_1_1_1_0" arrivalPos="300.00" arrivalSpeed="10.81" duration="94.00" routeLength="621.01" waitingTime="30.00" waitingCount="1" stopTime="0.00" timeLoss="37.95" rerouteNo="0" devices="tripinfo_S_N_13" vType="standard_car" speedFactor="1.12" vaporized=""/>
    <tripinfo id="S_N_15" depart="48.00" departLane="road_1_0_1_0" departPos="5.10" departSpeed="10.00" departDelay="0.00" arrival="140.00" arrivalLane="road_1_1_1_0" arrivalPos="300.00" arrivalSpeed="10.97" duration="92.00" routeLength="621.01" waitingTime="26.00" waitingCount="1" stopTime="0.00" timeLoss="35.16" rerouteNo="0" devices="tripinfo_S_N_15" vType="standard_car" speedFactor="0.93" vaporized=""/>
    <tripinfo id="S_N_16" depart="51.00" departLane="road_1_0_1_1" departPos="5.10" departSpeed="10.00" departDelay="0.00" arrival="142.00" arrivalLane="road_1_1_1_0" arrivalPos="300.00" arrivalSpeed="10.56" duration="91.00" routeLength="621.01" waitingTime="25.00" waitingCount="1" stopTime="0.00" timeLoss="34.44" rerouteNo="0" devices="tripinfo_S_N_16" vType="standard_car" speedFactor="0.88" vaporized=""/>
    <tripinfo id="S_N_19" depart="56.00" departLane="road_1_0_1_0" departPos="5.10" departSpeed="10.00" departDelay="0.00" arrival="144.00" arrivalLane="road_1_1_1_0" arrivalPos="300.00" arrivalSpeed="10.28" duration="88.00" routeLength="621.01" waitingTime="21.00" waitingCount="1" stopTime="0.00" timeLoss="31.66" rerouteNo="0" devices="tripinfo_S_N_19" vType="standard_car" speedFactor="1.16" vaporized=""/>
    <tripinfo id="S_N_18" depart="56.00" departLane="road_1_0_1_2" departPos="5.10" departSpeed="10.00" departDelay="0.00" arrival="146.00" arrivalLane="road_1_1_1_0" arrivalPos="300.00" arrivalSpeed="10.39" duration="90.00" routeLength="621.01" waitingTime="20.00" waitingCount="1" stopTime="0.00" timeLoss="33.56" rerouteNo="0" devices="tripinfo_S_N_18" vType="standard_car" speedFactor="0.94" vaporized=""/>
    <tripinfo id="S_N_20" depart="62.00" departLane="road_1_0_1_0" departPos="5.10" departSpeed="10.00" departDelay="0.00" arrival="148.00" arrivalLane="road_1_1_1_0" arrivalPos="300.00" arrivalSpeed="10.69" duration="86.00" routeLength="621.01" waitingTime="19.00" waitingCount="1" stopTime="0.00" timeLoss="29.61" rerouteNo="0" devices="tripinfo_S_N_20" vType="standard_car" speedFactor="1.02" vaporized=""/>
    <tripinfo id="S_N_25" depart="65.00" departLane="road_1_0_1_1" departPos="5.10" departSpeed="10.00" departDelay="0.00" arrival="150.00" arrivalLane="road_1_1_1_0" arrivalPos="300.00" arrivalSpeed="10.81" duration="85.00" routeLength="621.01" waitingTime="17.00" waitingCount="1" stopTime="0.00" timeLoss="28.51" rerouteNo="0" devices="tripinfo_S_N_25" vType="standard_car" speedFactor="0.87" vaporized=""/>
    <tripinfo id="S_N_27" depart="67.00" departLane="road_1_0_1_1" departPos="5.10" departSpeed="10.00" departDelay="0.00" arrival="152.00" arrivalLane="road_1_1_1_0" arrivalPos="300.00" arrivalSpeed="10.84" duration="85.00" routeLength="621.01" waitingTime="15.00" waitingCount="1" stopTime="0.00" timeLoss="28.24" rerouteNo="0" devices="tripinfo_S_N_27" vType="standard_car" speedFactor="0.95" vaporized=""/>
    <tripinfo id="S_N_30" depart="80.00" departLane="road_1_0_1_2" departPos="5.10" departSpeed="10.00" departDelay="0.00" arrival="154.00" arrivalLane="road_1_1_1_0" arrivalPos="300.00" arrivalSpeed="10.82" duration="74.00" routeLength="621.01" waitingTime="6.00" waitingCount="1" stopTime="0.00" timeLoss="17.51" rerouteNo="0" devices="tripinfo_S_N_30" vType="standard_car" speedFactor="1.18" vaporized=""/>
    <tripinfo id="S_N_34" depart="96.00" departLane="road_1_0_1_1" departPos="5.10" departSpeed="10.00" departDelay="0.00" arrival="156.00" arrivalLane="road_1_1_1_1" arrivalPos="300.00" arrivalSpeed="10.46" duration="60.00" routeLength="621.01" waitingTime="0.00" waitingCount="0" stopTime="0.00" timeLoss="3.18" rerouteNo="0" devices="tripinfo_S_N_34" vType="standard_car" speedFactor="0.99" vaporized=""/>
    <tripinfo id="W_N_12" depart="44.00" departLane="road_0_1_0_0" departPos="5.10" departSpeed="10.00" departDelay="2.00" arrival="166.00" arrivalLane="road_1_1_1_0" arrivalPos="300.00" arrivalSpeed="10.28" duration="122.00" routeLength="620.75" waitingTime="58.00" waitingCount="1" stopTime="0.00" timeLoss="65.55" rerouteNo="0" devices="tripinfo_W_N_12" vType="standard_car" speedFactor="1.05" vaporized=""/>
    <tripinfo id="W_E_28" depart="69.00" departLane="road_0_1_0_0" departPos="5.10" departSpeed="10.00" departDelay="0.00" arrival="167.00" arrivalLane="road_1_1_0_0" arrivalPos="300.00" arrivalSpeed="10.52" duration="98.00" routeLength="621.01" waitingTime="32.00" waitingCount="1" stopTime="0.00" timeLoss="41.55" rerouteNo="0" devices="tripinfo_W_E_28" vType="standard_car" speedFactor="1.13" vaporized=""/>
    <tripinfo id="W_N_23" depart="63.00" departLane="road_0_1_0_1" departPos="5.10" departSpeed="10.00" departDelay="0.00" arrival="168.00" arrivalLane="road_1_1_1_0" arrivalPos="300.00" arrivalSpeed="10.35" duration="105.00" routeLength="620.75" waitingTime="41.00" waitingCount="1" stopTime="0.00" timeLoss="48.43" rerouteNo="0" devices="tripinfo_W_N_23" vType="standard_car" speedFactor="0.89" vaporized=""/>
    <tripinfo id="W_E_38" depart="113.00" departLane="road_0_1_0_2" departPos="5.10" departSpeed="10.00" departDelay="0.00" arrival="172.00" arrivalLane="road_1_1_0_0" arrivalPos="300.00" arrivalSpeed="10.81" duration="59.00" routeLength="621.01" waitingTime="0.00" waitingCount="0" stopTime="0.00" timeLoss="2.83" rerouteNo="0" devices="tripinfo_W_E_38" vType="standard_car" speedFactor="1.10" vaporized=""/>
    <tripinfo id="W_E_40" depart="118.00" departLane="road_0_1_0_1" departPos="5.10" departSpeed="10.00" departDelay="0.00" arrival="177.00" arrivalLane="road_1_1_0_0" arrivalPos="300.00" arrivalSpeed="11.06" duration="59.00" routeLength="621.01" waitingTime="0.00" waitingCount="0" stopTime="0.00" timeLoss="2.94" rerouteNo="0" devices="tripinfo_W_E_40" vType="standard_car" speedFactor="1.03" vaporized=""/>
    <tripinfo id="W_E_44" depart="121.00" departLane="road_0_1_0_1" departPos="5.10" departSpeed="10.00" departDelay="0.00" arrival="180.00" arrivalLane="road_1_1_0_0" arrivalPos="300.00" arrivalSpeed="10.74" duration="59.00" routeLength="621.01" waitingTime="0.00" waitingCount="0" stopTime="0.00" timeLoss="2.73" rerouteNo="0" devices="tripinfo_W_E_44" vType="standard_car" speedFactor="1.04" vaporized=""/>
    <tripinfo id="W_E_46" depart="122.00" departLane="road_0_1_0_0" departPos="5.10" departSpeed="10.00" departDelay="0.00" arrival="182.00" arrivalLane="road_1_1_0_0" arrivalPos="300.00" arrivalSpeed="10.12" duration="60.00" routeLength="621.01" waitingTime="0.00" waitingCount="0" stopTime="0.00" timeLoss="3.75" rerouteNo="0" devices="tripinfo_W_E_46" vType="standard_car" speedFactor="1.00" vaporized=""/>
    <tripinfo id="W_E_47" depart="124.00" departLane="road_0_1_0_2" departPos="5.10" departSpeed="10.00" departDelay="0.00" arrival="184.00" arrivalLane="road_1_1_0_0" arrivalPos="300.00" arrivalSpeed="10.56" duration="60.00" routeLength="621.01" waitingTime="0.00" waitingCount="0" stopTime="0.00" timeLoss="3.71" rerouteNo="0" devices="tripinfo_W_E_47" vType="standard_car" speedFactor="0.90" vaporized=""/>
    <tripinfo id="W_E_49" depart="128.00" departLane="road_0_1_0_2" departPos="5.10" departSpeed="10.00" departDelay="0.00" arrival="187.00" arrivalLane="road_1_1_0_0" arrivalPos="300.00" arrivalSpeed="10.24" duration="59.00" routeLength="621.01" waitingTime="0.00" waitingCount="0" stopTime="0.00" timeLoss="3.09" rerouteNo="0" devices="tripinfo_W_E_49" vType="standard_car" speedFactor="0.85" vaporized=""/>
    <tripinfo id="W_E_50" depart="130.00" departLane="road_0_1_0_1" departPos="5.10" departSpeed="10.00" departDelay="0.00" arrival="189.00" arrivalLane="road_1_1_0_0" arrivalPos="300.00" arrivalSpeed="11.08" duration="59.00" routeLength="621.01" waitingTime="0.00" waitingCount="0" stopTime="0.00" timeLoss="2.84" rerouteNo="0" devices="tripinfo_W_E_50" vType="standard_car" speedFactor="0.85" vaporized=""/>
    <tripinfo id="E_W_29" depart="70.00" departLane="road_2_1_2_2" departPos="5.10" departSpeed="10.00" departDelay="0.00" arrival="199.00" arrivalLane="road_1_1_2_0" arrivalPos="300.00" arrivalSpeed="10.96" duration="129.00" routeLength="621.01" waitingTime="65.00" waitingCount="1" stopTime="0.00" timeLoss="72.90" rerouteNo="0" devices="tripinfo_E_W_29" vType="standard_car" speedFactor="0.93" vaporized=""/>
    <tripinfo id="E_S_43" depart="121.00" departLane="road_2_1_2_0" departPos="5.10" departSpeed="10.00" departDelay="0.00" arrival="200.00" arrivalLane="road_1_1_3_0" arrivalPos="300.00" arrivalSpeed="10.30" duration="79.00" routeLength="620.75" waitingTime="12.00" waitingCount="1" stopTime="0.00" timeLoss="22.26" rerouteNo="0" devices="tripinfo_E_S_43" vType="standard_car" speedFactor="1.04" vaporized=""/>
    <tripinfo id="E_W_32" depart="84.00" departLane="road_2_1_2_2" departPos="5.10" departSpeed="10.00" departDelay="0.00" arrival="201.00" arrivalLane="road_1_1_2_0" arrivalPos="300.00" arrivalSpeed="10.82" duration="117.00" routeLength="621.01" waitingTime="53.00" waitingCount="1" stopTime="0.00" timeLoss="61.07" rerouteNo="0" devices="tripinfo_E_W_32" vType="standard_car" speedFactor="1.01" vaporized=""/>
    <tripinfo id="E_W_33" depart="96.00" departLane="road_2_1_2_1" departPos="5.10" departSpeed="10.00" departDelay="0.00" arrival="203.00" arrivalLane="road_1_1_2_0" arrivalPos="300.00" arrivalSpeed="10.90" duration="107.00" routeLength="621.01" waitingTime="44.00" waitingCount="1" stopTime="0.00" timeLoss="51.07" rerouteNo="0" devices="tripinfo_E_W_33" vType="standard_car" speedFactor="1.17" vaporized=""/>
    <tripinfo id="E_W_42" depart="121.00" departLane="road_2_1_2_1" departPos="5.10" departSpeed="10.00" departDelay="0.00" arrival="205.00" arrivalLane="road_1_1_2_0" arrivalPos="300.00" arrivalSpeed="10.41" duration="84.00" routeLength="621.01" waitingTime="20.00" waitingCount="1" stopTime="0.00" timeLoss="27.76" rerouteNo="0" devices="tripinfo_E_W_42" vType="standard_car" speedFactor="1.09" vaporized=""/>
    <tripinfo id="S_W_21" depart="62.00" departLane="road_1_0_1_2" departPos="5.10" departSpeed="10.00" departDelay="0.00" arrival="233.00" arrivalLane="road_1_1_2_0" arrivalPos="300.00" arrivalSpeed="10.68" duration="171.00" routeLength="620.75" waitingTime="107.00" waitingCount="1" stopTime="0.00" timeLoss="114.20" rerouteNo="0" devices="tripinfo_S_W_21" vType="standard_car" speedFactor="1.01" vaporized=""/>
    <tripinfo id="S_N_36" depart="109.00" departLane="road_1_0_1_1" departPos="5.10" departSpeed="10.00" departDelay="0.00" arrival="233.00" arrivalLane="road_1_1_1_0" arrivalPos="300.00" arrivalSpeed="10.31" duration="124.00" routeLength="621.01" waitingTime="59.00" waitingCount="1" stopTime="0.00" timeLoss="67.55" rerouteNo="0" devices="tripinfo_S_N_36" vType="standard_car" speedFactor="0.97" vaporized=""/>
    <tripinfo id="S_W_26" depart="65.00" departLane="road_1_0_1_0" departPos="5.10" departSpeed="10.00" departDelay="0.00" arrival="235.00" arrivalLane="road_1_1_2_0" arrivalPos="300.00" arrivalSpeed="10.12" duration="170.00" routeLength="620.75" waitingTime="104.00" waitingCount="1" stopTime="0.00" timeLoss="113.39" rerouteNo="0" devices="tripinfo_S_W_26" vType="standard_car" speedFactor="0.92" vaporized=""/>
    <tripinfo id="S_N_37" depart="112.00" departLane="road_1_0_1_1" departPos="5.10" departSpeed="10.00" departDelay="0.00" arrival="235.00" arrivalLane="road_1_1_1_1" arrivalPos="300.00" arrivalSpeed="10.21" duration="123.00" routeLength="621.01" waitingTime="58.00" waitingCount="1" stopTime="0.00" timeLoss="66.24" rerouteNo="0" devices="tripinfo_S_N_37" vType="standard_car" speedFactor="1.18" vaporized=""/>
    <tripinfo id="S_W_31" depart="80.00" departLane="road_1_0_1_1" departPos="5.10" departSpeed="10.00" departDelay="0.00" arrival="237.00" arrivalLane="road_1_1_2_0" arrivalPos="300.00" arrivalSpeed="10.16" duration="157.00" routeLength="620.75" waitingTime="93.00" waitingCount="1" stopTime="0.00" timeLoss="100.56" rerouteNo="0" devices="tripinfo_S_W_31" vType="standard_car" speedFactor="1.15" vaporized=""/>
    <tripinfo id="S_N_39" depart="114.00" departLane="road_1_0_1_0" departPos="5.10" departSpeed="10.00" departDelay="1.00" arrival="237.00" arrivalLane="road_1_1_1_0" arrivalPos="300.00" arrivalSpeed="10.27" duration="123.00" routeLength="621.01" waitingTime="56.00" waitingCount="1" stopTime="0.00" timeLoss="66.21" rerouteNo="0" devices="tripinfo_S_N_39" vType="standard_car" speedFactor="0.90" vaporized=""/>
    <tripinfo id="S_N_41" depart="119.00" departLane="road_1_0_1_1" departPos="5.10" departSpeed="10.00" departDelay="0.00" arrival="239.00" arrivalLane="road_1_1_1_0" arrivalPos="300.00" arrivalSpeed="10.25" duration="120.00" routeLength="621.01" waitingTime="54.00" waitingCount="1" stopTime="0.00" timeLoss="63.42" rerouteNo="0" devices="tripinfo_S_N_41" vType="standard_car" speedFactor="0.96" vaporized=""/>
    <tripinfo id="S_W_60" depart="161.00" departLane="road_1_0_1_1" departPos="5.10" departSpeed="10.00" departDelay="0.00" arrival="239.00" arrivalLane="road_1_1_2_0" arrivalPos="300.00" arrivalSpeed="10.91" duration="78.00" routeLength="620.75" waitingTime="12.00" waitingCount="1" stopTime="0.00" timeLoss="21.41" rerouteNo="0" devices="tripinfo_S_W_60" vType="standard_car" speedFactor="1.08" vaporized=""/>
    <tripinfo id="S_N_45" depart="122.00" departLane="road_1_0_1_0" departPos="5.10" departSpeed="10.00" departDelay="0.00" arrival="240.00" arrivalLane="road_1_1_1_1" arrivalPos="300.00" arrivalSpeed="11.11" duration="118.00" routeLength="621.01" waitingTime="54.00" waitingCount="1" stopTime="0.00" timeLoss="62.01" rerouteNo="0" devices="tripinfo_S_N_45" vType="standard_car" speedFactor="1.09" vaporized=""/>
    <tripinfo id="S_W_65" depart="165.00" departLane="road_1_0_1_0" departPos="5.10" departSpeed="10.00" departDelay="0.00" arrival="241.00" arrivalLane="road_1_1_2_0" arrivalPos="300.00" arrivalSpeed="10.65" duration="76.00" routeLength="620.75" waitingTime="10.00" waitingCount="1" stopTime="0.00" timeLoss="18.98" rerouteNo="0" devices="tripinfo_S_W_65" vType="standard_car" speedFactor="0.88" vaporized=""/>
    <tripinfo id="S_N_48" depart="125.00" departLane="road_1_0_1_2" departPos="5.10" departSpeed="10.00" departDelay="0.00" arrival="242.00" arrivalLane="road_1_1_1_0" arrivalPos="300.00" arrivalSpeed="10.48" duration="117.00" routeLength="621.01" waitingTime="51.00" waitingCount="1" stopTime="0.00" timeLoss="61.00" rerouteNo="0" devices="tripinfo_S_N_48" vType="standard_car" speedFactor="0.88" vaporized=""/>
    <tripinfo id="S_N_51" depart="139.00" departLane="road_1_0_1_2" departPos="5.10" departSpeed="10.00" departDelay="0.00" arrival="245.00" arrivalLane="road_1_1_1_0" arrivalPos="300.00" arrivalSpeed="10.90" duration="106.00" routeLength="621.01" waitingTime="40.00" waitingCount="1" stopTime="0.00" timeLoss="49.25" rerouteNo="0" devices="tripinfo_S_N_51" vType="standard_car" speedFactor="1.17" vaporized=""/>
    <tripinfo id="S_N_54" depart="149.00" departLane="road_1_0_1_2" departPos="5.10" departSpeed="10.00" departDelay="0.00" arrival="246.00" arrivalLane="road_1_1_1_0" arrivalPos="300.00" arrivalSpeed="10.63" duration="97.00" routeLength="621.01" waitingTime="31.00" waitingCount="1" stopTime="0.00" timeLoss="40.98" rerouteNo="0" devices="tripinfo_S_N_54" vType="standard_car" speedFactor="1.00" vaporized=""/>
    <tripinfo id="S_N_55" depart="154.00" departLane="road_1_0_1_1" departPos="5.10" departSpeed="10.00" departDelay="0.00" arrival="248.00" arrivalLane="road_1_1_1_0" arrivalPos="300.00" arrivalSpeed="10.68" duration="94.00" routeLength="621.01" waitingTime="29.00" waitingCount="1" stopTime="0.00" timeLoss="37.98" rerouteNo="0" devices="tripinfo_S_N_55" vType="standard_car" speedFactor="1.00" vaporized=""/>
    <tripinfo id="S_N_59" depart="161.00" departLane="road_1_0_1_2" departPos="5.10" departSpeed="10.00" departDelay="0.00" arrival="251.00" arrivalLane="road_1_1_1_0" arrivalPos="300.00" arrivalSpeed="10.98" duration="90.00" routeLength="621.01" waitingTime="22.00" waitingCount="1" stopTime="0.00" timeLoss="33.18" rerouteNo="0" devices="tripinfo_S_N_59" vType="standard_car" speedFactor="0.97" vaporized=""/>
    <tripinfo id="S_N_64" depart="165.00" departLane="road_1_0_1_2" departPos="5.10" departSpeed="10.00" departDelay="0.00" arrival="253.00" arrivalLane="road_1_1_1_0" arrivalPos="300.00" arrivalSpeed="10.14" duration="88.00" routeLength="621.01" waitingTime="20.00" waitingCount="1" stopTime="0.00" timeLoss="31.24" rerouteNo="0" devices="tripinfo_S_N_64" vType="standard_car" speedFactor="0.94" vaporized=""/>
    <tripinfo id="S_N_67" depart="170.00" departLane="road_1_0_1_1" departPos="5.10" departSpeed="10.00" departDelay="0.00" arrival="255.00" arrivalLane="road_1_1_1_0" arrivalPos="300.00" arrivalSpeed="10.93" duration="85.00" routeLength="621.01" waitingTime="17.00" waitingCount="1" stopTime="0.00" timeLoss="28.16" rerouteNo="0" devices="tripinfo_S_N_67" vType="standard_car" speedFactor="0.91" vaporized=""/>
    <tripinfo id="S_N_70" depart="173.00" departLane="road_1_0_1_2" departPos="5.10" departSpeed="10.00" departDelay="0.00" arrival="257.00" arrivalLane="road_1_1_1_0" arrivalPos="300.00" arrivalSpeed="11.05" duration="84.00" routeLength="621.01" waitingTime="16.00" waitingCount="1" stopTime="0.00" timeLoss="27.14" rerouteNo="0" devices="tripinfo_S_N_70" vType="standard_car" speedFactor="1.02" vaporized=""/>
    <tripinfo id="S_N_71" depart="175.00" departLane="road_1_0_1_1" departPos="5.10" departSpeed="10.00" departDelay="0.00" arrival="258.00" arrivalLane="road_1_1_1_1" arrivalPos="300.00" arrivalSpeed="10.71" duration="83.00" routeLength="621.01" waitingTime="16.00" waitingCount="1" stopTime="0.00" timeLoss="26.86" rerouteNo="0" devices="tripinfo_S_N_71" vType="standard_car" speedFactor="0.97" vaporized=""/>
    <tripinfo id="N_S_35" depart="107.00" departLane="road_1_2_3_2" departPos="5.10" departSpeed="10.00" departDelay="0.00" arrival="266.00" arrivalLane="road_1_1_3_0" arrivalPos="300.00" arrivalSpeed="10.24" duration="159.00" routeLength="621.01" waitingTime="95.00" waitingCount="1" stopTime="0.00" timeLoss="102.64" rerouteNo="0" devices="tripinfo_N_S_35" vType="standard_car" speedFactor="1.02" vaporized=""/>
    <tripinfo id="N_S_53" depart="145.00" departLane="road_1_2_3_2" departPos="5.10" departSpeed="10.00" departDelay="0.00" arrival="268.00" arrivalLane="road_1_1_3_0" arrivalPos="300.00" arrivalSpeed="10.53" duration="123.00" routeLength="621.01" waitingTime="58.00" waitingCount="1" stopTime="0.00" timeLoss="66.66" rerouteNo="0" devices="tripinfo_N_S_53" vType="standard_car" speedFactor="1.10" vaporized=""/>
    <tripinfo id="N_S_58" depart="157.00" departLane="road_1_2_3_2" departPos="5.10" departSpeed="10.00" departDelay="0.00" arrival="270.00" arrivalLane="road_1_1_3_0" arrivalPos="300.00" arrivalSpeed="10.53" duration="113.00" routeLength="621.01" waitingTime="48.00" waitingCount="1" stopTime="0.00" timeLoss="56.69" rerouteNo="0" devices="tripinfo_N_S_58" vType="standard_car" speedFactor="1.02" vaporized=""/>
    <tripinfo id="N_S_61" depart="162.00" departLane="road_1_2_3_0" departPos="5.10" departSpeed="10.00" departDelay="0.00" arrival="272.00" arrivalLane="road_1_1_3_0" arrivalPos="300.00" arrivalSpeed="10.46" duration="110.00" routeLength="621.01" waitingTime="43.00" waitingCount="1" stopTime="0.00" timeLoss="53.68" rerouteNo="0" devices="tripinfo_N_S_61" vType="standard_car" speedFactor="1.12" vaporized=""/>
    <tripinfo id="N_S_62" depart="163.00" departLane="road_1_2_3_1" departPos="5.10" departSpeed="10.00" departDelay="0.00" arrival="274.00" arrivalLane="road_1_1_3_0" arrivalPos="300.00" arrivalSpeed="10.99" duration="111.00" routeLength="621.01" waitingTime="42.00" waitingCount="1" stopTime="0.00" timeLoss="54.54" rerouteNo="0" devices="tripinfo_N_S_62" vType="standard_car" speedFactor="1.02" vaporized=""/>
    <tripinfo id="N_S_63" depart="165.00" departLane="road_1_2_3_0" departPos="5.10" departSpeed="10.00" departDelay="0.00" arrival="276.00" arrivalLane="road_1_1_3_0" arrivalPos="300.00" arrivalSpeed="10.23" duration="111.00" routeLength="621.01" waitingTime="42.00" waitingCount="1" stopTime="0.00" timeLoss="54.98" rerouteNo="0" devices="tripinfo_N_S_63" vType="standard_car" speedFactor="0.99" vaporized=""/>
    <tripinfo id="N_S_66" depart="167.00" departLane="road_1_2_3_2" departPos="5.10" departSpeed="10.00" departDelay="0.00" arrival="278.00" arrivalLane="road_1_1_3_0" arrivalPos="300.00" arrivalSpeed="10.15" duration="111.00" routeLength="621.01" waitingTime="42.00" waitingCount="1" stopTime="0.00" timeLoss="54.94" rerouteNo="0" devices="tripinfo_N_S_66" vType="standard_car" speedFactor="0.91" vaporized=""/>
    <tripinfo id="N_S_68" depart="171.00" departLane="road_1_2_3_0" departPos="5.10" departSpeed="10.00" departDelay="0.00" arrival="280.00" arrivalLane="road_1_1_3_0" arrivalPos="300.00" arrivalSpeed="10.92" duration="109.00" routeLength="621.01" waitingTime="42.00" waitingCount="1" stopTime="0.00" timeLoss="52.76" rerouteNo="0" devices="tripinfo_N_S_68" vType="standard_car" speedFactor="1.04" vaporized=""/>
    <tripinfo id="N_S_69" depart="173.00" departLane="road_1_2_3_0" departPos="5.10" departSpeed="10.00" departDelay="0.00" arrival="282.00" arrivalLane="road_1_1_3_0" arrivalPos="300.00" arrivalSpeed="10.17" duration="109.00" routeLength="621.01" waitingTime="40.00" waitingCount="1" stopTime="0.00" timeLoss="52.93" rerouteNo="0" devices="tripinfo_N_S_69" vType="standard_car" speedFactor="1.02" vaporized=""/>
    <tripinfo id="N_S_73" depart="177.00" departLane="road_1_2_3_2" departPos="5.10" departSpeed="10.00" departDelay="0.00" arrival="284.00" arrivalLane="road_1_1_3_1" arrivalPos="300.00" arrivalSpeed="10.21" duration="107.00" routeLength="621.01" waitingTime="39.00" waitingCount="1" stopTime="0.00" timeLoss="50.68" rerouteNo="0" devices="tripinfo_N_S_73" vType="standard_car" speedFactor="1.06" vaporized=""/>