<?xml version="1.0" encoding="UTF-8"?>

<!-- generated on 2022-04-23 11:48:28 by Eclipse SUMO sumo Version 1.10.0
<configuration xmlns:xsi="http://www.w3.org/2001/XMLSchema-instance" xsi:noNamespaceSchemaLocation="http://sumo.dlr.de/xsd/sumoConfiguration.xsd">

    <input>
        <net-file value="./sumoNet1/net.net.xml"/>
        <route-files value="./sumoNet1/test15.rou.xml"/>
    </input>

    <output>
        <tripinfo-output value="tripinfo.xml"/>
    </output>

    <time>
        <begin value="0"/>
        <step-length value="1"/>
    </time>

    <processing>
        <time-to-teleport value="-1"/>
        <waiting-time-memory value="15"/>
    </processing>

    <traci_server>
        <remote-port value="49750"/>
    </traci_server>

    <gui_only>
        <quit-on-end value="true"/>
        <start value="true"/>
        <tracker-interval value="1"/>
    </gui_only>

</configuration>
-->

<tripinfos xmlns:xsi="http://www.w3.org/2001/XMLSchema-instance" xsi:noNamespaceSchemaLocation="http://sumo.dlr.de/xsd/tripinfo_file.xsd">
    <tripinfo id="S_N_1" depart="19.00" departLane="road_1_0_1_1" departPos="5.10" departSpeed="10.00" departDelay="0.00" arrival="107.00" arrivalLane="road_1_1_1_0" arrivalPos="300.00" arrivalSpeed="10.49" duration="88.00" routeLength="621.01" waitingTime="23.00" waitingCount="1" stopTime="0.00" timeLoss="31.44" rerouteNo="0" devices="tripinfo_S_N_1" vType="standard_car" speedFactor="0.94" vaporized=""/>
    <tripinfo id="W_S_2" depart="53.00" departLane="road_0_1_0_2" departPos="5.10" departSpeed="10.00" departDelay="0.00" arrival="112.00" arrivalLane="road_1_1_3_0" arrivalPos="300.00" arrivalSpeed="10.21" duration="59.00" routeLength="603.77" waitingTime="0.00" waitingCount="0" stopTime="0.00" timeLoss="3.11" rerouteNo="0" devices="tripinfo_W_S_2" vType="standard_car" speedFactor="1.01" vaporized=""/>
    <tripinfo id="S_N_3" depart="65.00" departLane="road_1_0_1_0" departPos="5.10" departSpeed="10.00" departDelay="0.00" arrival="124.00" arrivalLane="road_1_1_1_0" arrivalPos="300.00" arrivalSpeed="10.80" duration="59.00" routeLength="621.01" waitingTime="0.00" waitingCount="0" stopTime="0.00" timeLoss="2.53" rerouteNo="0" devices="tripinfo_S_N_3" vType="standard_car" speedFactor="1.08" vaporized=""/>
    <tripinfo id="N_W_4" depart="70.00" departLane="road_1_2_3_2" departPos="5.10" departSpeed="10.00" departDelay="0.00" arrival="129.00" arrivalLane="road_1_1_2_0" arrivalPos="300.00" arrivalSpeed="10.14" duration="59.00" routeLength="603.77" waitingTime="0.00" waitingCount="0" stopTime="0.00" timeLoss="3.92" rerouteNo="0" devices="tripinfo_N_W_4" vType="standard_car" speedFactor="1.03" vaporized=""/>
    <tripinfo id="S_N_5" depart="76.00" departLane="road_1_0_1_1" departPos="5.10" departSpeed="10.00" departDelay="0.00" arrival="139.00" arrivalLane="road_1_1_1_0" arrivalPos="300.00" arrivalSpeed="10.11" duration="63.00" routeLength="621.01" waitingTime="0.00" waitingCount="0" stopTime="0.00" timeLoss="6.25" rerouteNo="0" devices="tripinfo_S_N_5" vType="standard_car" speedFactor="0.83" vaporized=""/>
    <tripinfo id="N_S_7" depart="119.00" departLane="road_1_2_3_1" departPos="5.10" departSpeed="10.00" departDelay="0.00" arrival="178.00" arrivalLane="road_1_1_3_0" arrivalPos="300.00" arrivalSpeed="10.66" duration="59.00" routeLength="621.01" waitingTime="0.00" waitingCount="0" stopTime="0.00" timeLoss="2.32" rerouteNo="0" devices="tripinfo_N_S_7" vType="standard_car" speedFactor="0.89" vaporized=""/>
    <tripinfo id="N_S_8" depart="125.00" departLane="road_1_2_3_1" departPos="5.10" departSpeed="10.00" departDelay="0.00" arrival="184.00" arrivalLane="road_1_1_3_0" arrivalPos="300.00" arrivalSpeed="10.24" duration="59.00" routeLength="621.01" waitingTime="0.00" waitingCount="0" stopTime="0.00" timeLoss="2.79" rerouteNo="0" devices="tripinfo_N_S_8" vType="standard_car" speedFactor="0.94" vaporized=""/>
    <tripinfo id="N_S_9" depart="132.00" departLane="road_1_2_3_1" departPos="5.10" departSpeed="10.00" departDelay="0.00" arrival="191.00" arrivalLane="road_1_1_3_0" arrivalPos="300.00" arrivalSpeed="10.15" duration="59.00" routeLength="621.01" waitingTime="0.00" waitingCount="0" stopTime="0.00" timeLoss="2.49" rerouteNo="0" devices="tripinfo_N_S_9" vType="standard_car" speedFactor="0.86" vaporized=""/>
    <tripinfo id="S_N_10" depart="133.00" departLane="road_1_0_1_2" departPos="5.10" departSpeed="10.00" departDelay="0.00" arrival="192.00" arrivalLane="road_1_1_1_0" arrivalPos="300.00" arrivalSpeed="10.92" duration="59.00" routeLength="621.01" waitingTime="0.00" waitingCount="0" stopTime="0.00" timeLoss="2.59" rerouteNo="0" devices="tripinfo_S_N_10" vType="standard_car" speedFactor="1.09" vaporized=""/>
    <tripinfo id="W_S_11" depart="142.00" departLane="road_0_1_0_0" departPos="5.10" departSpeed="10.00" departDelay="0.00" arrival="201.00" arrivalLane="road_1_1_3_0" arrivalPos="300.00" arrivalSpeed="10.19" duration="59.00" routeLength="603.77" waitingTime="0.00" waitingCount="0" stopTime="0.00" timeLoss="3.89" rerouteNo="0" devices="tripinfo_W_S_11" vType="standard_car" speedFactor="1.03" vaporized=""/>
    <tripinfo id="W_E_0" depart="12.00" departLane="road_0_1_0_2" departPos="5.10" departSpeed="10.00" departDelay="0.00" arrival="205.00" arrivalLane="road_1_1_0_0" arrivalPos="300.00" arrivalSpeed="10.25" duration="193.00" routeLength="621.01" waitingTime="129.00" waitingCount="1" stopTime="0.00" timeLoss="136.45" rerouteNo="0" devices="tripinfo_W_E_0" vType="standard_car" speedFactor="1.06" vaporized=""/>
    <tripinfo id="S_E_14" depart="158.00" departLane="road_1_0_1_2" departPos="5.10" departSpeed="10.00" departDelay="0.00" arrival="217.00" arrivalLane="road_1_1_0_0" arrivalPos="300.00" arrivalSpeed="11.09" duration="59.00" routeLength="603.77" waitingTime="0.00" waitingCount="0" stopTime="0.00" timeLoss="3.63" rerouteNo="0" devices="tripinfo_S_E_14" vType="standard_car" speedFactor="0.99" vaporized=""/>
    <tripinfo id="W_E_15" depart="165.00" departLane="road_0_1_0_0" departPos="5.10" departSpeed="10.00" departDelay="0.00" arrival="224.00" arrivalLane="road_1_1_0_0" arrivalPos="300.00" arrivalSpeed="10.16" duration="59.00" routeLength="621.01" waitingTime="0.00" waitingCount="0" stopTime="0.00" timeLoss="2.63" rerouteNo="0" devices="tripinfo_W_E_15" vType="standard_car" speedFactor="0.93" vaporized=""/>
    <tripinfo id="N_W_17" depart="172.00" departLane="road_1_2_3_2" departPos="5.10" departSpeed="10.00" departDelay="0.00" arrival="231.00" arrivalLane="road_1_1_2_0" arrivalPos="300.00" arrivalSpeed="10.17" duration="59.00" routeLength="603.77" waitingTime="0.00" waitingCount="0" stopTime="0.00" timeLoss="3.21" rerouteNo="0" devices="tripinfo_N_W_17" vType="standard_car" speedFactor="0.94" vaporized=""/>
    <tripinfo id="E_N_18" depart="175.00" departLane="road_2_1_2_0" departPos="5.10" departSpeed="10.00" departDelay="0.00" arrival="234.00" arrivalLane="road_1_1_1_0" arrivalPos="300.00" arrivalSpeed="10.20" duration="59.00" routeLength="603.77" waitingTime="0.00" waitingCount="0" stopTime="0.00" timeLoss="4.04" rerouteNo="0" devices="tripinfo_E_N_18" vType="standard_car" speedFactor="0.94" vaporized=""/>
    <tripinfo id="S_E_21" depart="176.00" departLane="road_1_0_1_2" departPos="5.10" departSpeed="10.00" departDelay="0.00" arrival="235.00" arrivalLane="road_1_1_0_0" arrivalPos="300.00" arrivalSpeed="10.53" duration="59.00" routeLength="603.77" waitingTime="0.00" waitingCount="0" stopTime="0.00" timeLoss="3.41" rerouteNo="0" devices="tripinfo_S_E_21" vType="standard_car" speedFactor="1.01" vaporized=""/>
    <tripinfo id="E_N_20" depart="176.00" departLane="road_2_1_2_1" departPos="5.10" departSpeed="10.00" departDelay="0.00" arrival="237.00" arrivalLane="road_1_1_1_0" arrivalPos="300.00" arrivalSpeed="10.75" duration="61.00" routeLength="603.77" waitingTime="0.00" waitingCount="0" stopTime="0.00" timeLoss="5.17" rerouteNo="0" devices="tripinfo_E_N_20" vType="standard_car" speedFactor="1.02" vaporized=""/>
    <tripinfo id="N_S_12" depart="151.00" departLane="road_1_2_3_0" departPos="5.10" departSpeed="10.00" departDelay="0.00" arrival="239.00" arrivalLane="road_1_1_3_0" arrivalPos="300.00" arrivalSpeed="10.24" duration="88.00" routeLength="621.01" waitingTime="23.00" waitingCount="1" stopTime="0.00" timeLoss="31.24" rerouteNo="0" devices="tripinfo_N_S_12" vType="standard_car" speedFactor="1.05" vaporized=""/>
    <tripinfo id="S_N_13" depart="152.00" departLane="road_1_0_1_0" departPos="5.10" departSpeed="10.00" departDelay="0.00" arrival="239.00" arrivalLane="road_1_1_1_0" arrivalPos="300.00" arrivalSpeed="10.71" duration="87.00" routeLength="621.01" waitingTime="21.00" waitingCount="1" stopTime="0.00" timeLoss="30.38" rerouteNo="0" devices="tripinfo_S_N_13" vType="standard_car" speedFactor="1.12" vaporized=""/>
    <tripinfo id="S_N_16" depart="169.00" departLane="road_1_0_1_1" departPos="5.10" departSpeed="10.00" departDelay="0.00" arrival="241.00" arrivalLane="road_1_1_1_0" arrivalPos="300.00" arrivalSpeed="10.28" duration="72.00" routeLength="621.01" waitingTime="6.00" waitingCount="1" stopTime="0.00" timeLoss="15.55" rerouteNo="0" devices="tripinfo_S_N_16" vType="standard_car" speedFactor="0.88" vaporized=""/>
    <tripinfo id="S_N_22" depart="177.00" departLane="road_1_0_1_0" departPos="5.10" departSpeed="10.00" departDelay="0.00" arrival="243.00" arrivalLane="road_1_1_1_0" arrivalPos="300.00" arrivalSpeed="10.45" duration="66.00" routeLength="621.01" waitingTime="0.00" waitingCount="0" stopTime="0.00" timeLoss="9.44" rerouteNo="0" devices="tripinfo_S_N_22" vType="standard_car" speedFactor="0.98" vaporized=""/>
    <tripinfo id="S_N_23" depart="180.00" departLane="road_1_0_1_0" departPos="5.10" departSpeed="10.00" departDelay="0.00" arrival="245.00" arrivalLane="road_1_1_1_0" arrivalPos="300.00" arrivalSpeed="10.24" duration="65.00" routeLength="621.01" waitingTime="0.00" waitingCount="0" stopTime="0.00" timeLoss="8.61" rerouteNo="0" devices="tripinfo_S_N_23" vType="standard_car" speedFactor="0.89" vaporized=""/>
    <tripinfo id="S_N_24" depart="186.00" departLane="road_1_0_1_2" departPos="5.10" departSpeed="10.00" departDelay="0.00" arrival="247.00" arrivalLane="road_1_1_1_0" arrivalPos="300.00" arrivalSpeed="10.89" duration="61.00" routeLength="621.01" waitingTime="0.00" waitingCount="0" stopTime="0.00" timeLoss="4.54" rerouteNo="0" devices="tripinfo_S_N_24" vType="standard_car" speedFactor="0.83" vaporized=""/>
    <tripinfo id="N_S_25" depart="192.00" departLane="road_1_2_3_0" departPos="5.10" departSpeed="10.00" departDelay="0.00" arrival="251.00" arrivalLane="road_1_1_3_0" arrivalPos="300.00" arrivalSpeed="10.27" duration="59.00" routeLength="621.01" waitingTime="0.00" waitingCount="0" stopTime="0.00" timeLoss="2.62" rerouteNo="0" devices="tripinfo_N_S_25" vType="standard_car" speedFactor="0.87" vaporized=""/>
    <tripinfo id="W_S_26" depart="194.00" departLane="road_0_1_0_1" departPos="5.10" departSpeed="10.00" departDelay="0.00" arrival="253.00" arrivalLane="road_1_1_3_0" arrivalPos="300.00" arrivalSpeed="10.36" duration="59.00" routeLength="603.77" waitingTime="0.00" waitingCount="0" stopTime="0.00" timeLoss="3.93" rerouteNo="0" devices="tripinfo_W_S_26" vType="standard_car" speedFactor="0.92" vaporized=""/>
    <tripinfo id="S_E_27" depart="194.00" departLane="road_1_0_1_2" departPos="5.10" departSpeed="10.00" departDelay="0.00" arrival="253.00" arrivalLane="road_1_1_0_0" arrivalPos="300.00" arrivalSpeed="10.13" duration="59.00" routeLength="603.77" waitingTime="0.00" waitingCount="0" stopTime="0.00" timeLoss="4.01" rerouteNo="0" devices="tripinfo_S_E_27" vType="standard_car" speedFactor="0.95" vaporized=""/>
    <tripinfo id="N_W_30" depart="200.00" departLane="road_1_2_3_1" departPos="5.10" departSpeed="10.00" departDelay="0.00" arrival="259.00" arrivalLane="road_1_1_2_0" arrivalPos="300.00" arrivalSpeed="10.23" duration="59.00" routeLength="603.77" waitingTime="0.00" waitingCount="0" stopTime="0.00" timeLoss="3.29" rerouteNo="0" devices="tripinfo_N_W_30" vType="standard_car" speedFactor="1.18" vaporized=""/>
    <tripinfo id="W_E_19" depart="175.00" departLane="road_0_1_0_1" departPos="5.10" departSpeed="10.00" departDelay="0.00" arrival="271.00" arrivalLane="road_1_1_0_0" arrivalPos="300.00" arrivalSpeed="10.77" duration="96.00" routeLength="621.01" waitingTime="32.00" waitingCount="1" stopTime="0.00" timeLoss="40.11" rerouteNo="0" devices="tripinfo_W_E_19" vType="standard_car" speedFactor="1.16" vaporized=""/>
    <tripinfo id="N_W_32" depart="213.00" departLane="road_1_2_3_2" departPos="5.10" departSpeed="10.00" departDelay="0.00" arrival="272.00" arrivalLane="road_1_1_2_0" arrivalPos="300.00" arrivalSpeed="10.59" duration="59.00" routeLength="603.77" waitingTime="0.00" waitingCount="0" stopTime="0.00" timeLoss="3.63" rerouteNo="0" devices="tripinfo_N_W_32" vType="standard_car" speedFactor="1.01" vaporized=""/>
    <tripinfo id="W_E_28" depart="197.00" departLane="road_0_1_0_1" departPos="5.10" departSpeed="10.00" departDelay="0.00" arrival="274.00" arrivalLane="road_1_1_0_0" arrivalPos="300.00" arrivalSpeed="10.31" duration="77.00" routeLength="621.01" waitingTime="12.00" waitingCount="1" stopTime="0.00" timeLoss="20.54" rerouteNo="0" devices="tripinfo_W_E_28" vType="standard_car" speedFactor="1.13" vaporized=""/>
    <tripinfo id="W_E_29" depart="199.00" departLane="road_0_1_0_0" departPos="5.10" departSpeed="10.00" departDelay="0.00" arrival="276.00" arrivalLane="road_1_1_0_0" arrivalPos="300.00" arrivalSpeed="10.60" duration="77.00" routeLength="621.01" waitingTime="11.00" waitingCount="1" stopTime="0.00" timeLoss="20.63" rerouteNo="0" devices="tripinfo_W_E_29" vType="standard_car" speedFactor="0.93" vaporized=""/>
    <tripinfo id="S_E_34" depart="220.00" departLane="road_1_0_1_1" departPos="5.10" departSpeed="10.00" departDelay="0.00" arrival="279.00" arrivalLane="road_1_1_0_0" arrivalPos="300.00" arrivalSpeed="10.77" duration="59.00" routeLength="603.77" waitingTime="0.00" waitingCount="0" stopTime="0.00" timeLoss="3.87" rerouteNo="0" devices="tripinfo_S_E_34" vType="standard_car" speedFactor="0.99" vaporized=""/>
    <tripinfo id="W_E_35" depart="229.00" departLane="road_0_1_0_2" departPos="5.10" departSpeed="10.00" departDelay="0.00" arrival="288.00" arrivalLane="road_1_1_0_0" arrivalPos="300.00" arrivalSpeed="10.20" duration="59.00" routeLength="621.01" waitingTime="0.00" waitingCount="0" stopTime="0.00" timeLoss="2.59" rerouteNo="0" devices="tripinfo_W_E_35" vType="standard_car" speedFactor="1.02" vaporized=""/>
    <tripinfo id="S_E_37" depart="241.00" departLane="road_1_0_1_1" departPos="5.10" departSpeed="10.00" departDelay="0.00" arrival="299.00" arrivalLane="road_1_1_0_0" arrivalPos="300.00" arrivalSpeed="10.42" duration="58.00" routeLength="603.77" waitingTime="0.00" waitingCount="0" stopTime="0.00" timeLoss="3.32" rerouteNo="0" devices="tripinfo_S_E_37" vType="standard_car" speedFactor="1.18" vaporized=""/>
    <tripinfo id="W_S_38" depart="242.00" departLane="road_0_1_0_2" departPos="5.10" departSpeed="10.00" departDelay="0.00" arrival="301.00" arrivalLane="road_1_1_3_0" arrivalPos="300.00" arrivalSpeed="10.76" duration="59.00" routeLength="603.77" waitingTime="0.00" waitingCount="0" stopTime="0.00" timeLoss="3.85" rerouteNo="0" devices="tripinfo_W_S_38" vType="standard_car" speedFactor="1.10" vaporized=""/>
    <tripinfo id="N_S_31" depart="204.00" departLane="road_1_2_3_0" departPos="5.10" departSpeed="10.00" departDelay="0.00" arrival="304.00" arrivalLane="road_1_1_3_0" arrivalPos="300.00" arrivalSpeed="10.68" duration="100.00" routeLength="621.01" waitingTime="37.00" waitingCount="1" stopTime="0.00" timeLoss="43.93" rerouteNo="0" devices="tripinfo_N_S_31" vType="standard_car" speedFactor="1.15" vaporized=""/>
    <tripinfo id="N_W_40" depart="246.00" departLane="road_1_2_3_2" departPos="5.10" departSpeed="10.00" departDelay="1.00" arrival="305.00" arrivalLane="road_1_1_2_0" arrivalPos="300.00" arrivalSpeed="10.52" duration="59.00" routeLength="603.77" waitingTime="0.00" waitingCount="0" stopTime="0.00" timeLoss="3.71" rerouteNo="0" devices="tripinfo_N_W_40" vType="standard_car" speedFactor="1.03" vaporized=""/>
    <tripinfo id="N_S_33" depart="215.00" departLane="road_1_2_3_2" departPos="5.10" departSpeed="10.00" departDelay="0.00" arrival="306.00" arrivalLane="road_1_1_3_0" arrivalPos="300.00" arrivalSpeed="10.83" duration="91.00" routeLength="621.01" waitingTime="26.00" waitingCount="1" stopTime="0.00" timeLoss="34.93" rerouteNo="0" devices="tripinfo_N_S_33" vType="standard_car" speedFactor="1.17" vaporized=""/>
    <tripinfo id="N_S_39" depart="244.00" departLane="road_1_2_3_1" departPos="5.10" departSpeed="10.00" departDelay="0.00" arrival="308.00" arrivalLane="road_1_1_3_0" arrivalPos="300.00" arrivalSpeed="10.88" duration="64.00" routeLength="621.01" waitingTime="0.00" waitingCount="0" stopTime="0.00" timeLoss="7.88" rerouteNo="0" devices="tripinfo_N_S_39" vType="standard_car" speedFactor="0.90" vaporized=""/>
    <tripinfo id="N_W_42" depart="250.00" departLane="road_1_2_3_0" departPos="5.10" departSpeed="10.00" departDelay="0.00" arrival="309.00" arrivalLane="road_1_1_2_0" arrivalPos="300.00" arrivalSpeed="10.60" duration="59.00" routeLength="603.77" waitingTime="0.00" waitingCount="0" stopTime="0.00" timeLoss="3.67" rerouteNo="0" devices="tripinfo_N_W_42" vType="standard_car" speedFactor="1.09" vaporized=""/>
    <tripinfo id="S_N_43" depart="250.00" departLane="road_1_0_1_1" departPos="5.10" departSpeed="10.00" departDelay="0.00" arrival="309.00" arrivalLane="road_1_1_1_0" arrivalPos="300.00" arrivalSpeed="10.11" duration="59.00" routeLength="621.01" waitingTime="0.00" waitingCount="0" stopTime="0.00" timeLoss="2.79" rerouteNo="0" devices="tripinfo_S_N_43" vType="standard_car" speedFactor="1.04" vaporized=""/>
    <tripinfo id="S_N_44" depart="252.00" departLane="road_1_0_1_1" departPos="5.10" departSpeed="10.00" departDelay="2.00" arrival="311.00" arrivalLane="road_1_1_1_0" arrivalPos="300.00" arrivalSpeed="10.88" duration="59.00" routeLength="621.01" waitingTime="0.00" waitingCount="0" stopTime="0.00" timeLoss="2.41" rerouteNo="0" devices="tripinfo_S_N_44" vType="standard_car" speedFactor="1.04" vaporized=""/>
    <tripinfo id="S_E_47" depart="261.00" departLane="road_1_0_1_0" departPos="5.10" departSpeed="10.00" departDelay="0.00" arrival="320.00" arrivalLane="road_1_1_0_0" arrivalPos="300.00" arrivalSpeed="10.99" duration="59.00" routeLength="603.77" waitingTime="0.00" waitingCount="0" stopTime="0.00" timeLoss="4.11" rerouteNo="0" devices="tripinfo_S_E_47" vType="standard_car" speedFactor="0.90" vaporized=""/>
    <tripinfo id="S_N_48" depart="264.00" departLane="road_1_0_1_2" departPos="5.10" departSpeed="10.00" departDelay="0.00" arrival="323.00" arrivalLane="road_1_1_1_1" arrivalPos="300.00" arrivalSpeed="10.29" duration="59.00" routeLength="621.01" waitingTime="0.00" waitingCount="0" stopTime="0.00" timeLoss="2.67" rerouteNo="0" devices="tripinfo_S_N_48" vType="standard_car" speedFactor="0.88" vaporized=""/>
    <tripinfo id="E_N_49" depart="264.00" departLane="road_2_1_2_2" departPos="5.10" departSpeed="10.00" departDelay="0.00" arrival="323.00" arrivalLane="road_1_1_1_0" arrivalPos="300.00" arrivalSpeed="10.48" duration="59.00" routeLength="603.77" waitingTime="0.00" waitingCount="0" stopTime="0.00" timeLoss="4.22" rerouteNo="0" devices="tripinfo_E_N_49" vType="standard_car" speedFactor="0.85" vaporized=""/>
    <tripinfo id="S_E_51" depart="266.00" departLane="road_1_0_1_2" departPos="5.10" departSpeed="10.00" departDelay="0.00" arrival="324.00" arrivalLane="road_1_1_0_0" arrivalPos="300.00" arrivalSpeed="11.08" duration="58.00" routeLength="603.77" waitingTime="0.00" waitingCount="0" stopTime="0.00" timeLoss="2.89" rerouteNo="0" devices="tripinfo_S_E_51" vType="standard_car" speedFactor="1.17" vaporized=""/>
    <tripinfo id="S_N_53" depart="267.00" departLane="road_1_0_1_2" departPos="5.10" departSpeed="10.00" departDelay="0.00" arrival="326.00" arrivalLane="road_1_1_1_1" arrivalPos="300.00" arrivalSpeed="10.64" duration="59.00" routeLength="621.01" waitingTime="0.00" waitingCount="0" stopTime="0.00" timeLoss="2.81" rerouteNo="0" devices="tripinfo_S_N_53" vType="standard_car" speedFactor="1.10" vaporized=""/>
    <tripinfo id="N_S_54" depart="267.00" departLane="road_1_2_3_2" departPos="5.10" departSpeed="10.00" departDelay="0.00" arrival="326.00" arrivalLane="road_1_1_3_0" arrivalPos="300.00" arrivalSpeed="10.65" duration="59.00" routeLength="621.01" waitingTime="0.00" waitingCount="0" stopTime="0.00" timeLoss="2.62" rerouteNo="0" devices="tripinfo_N_S_54" vType="standard_car" speedFactor="1.00" vaporized=""/>
    <tripinfo id="E_N_50" depart="266.00" departLane="road_2_1_2_1" departPos="5.10" departSpeed="10.00" departDelay="1.00" arrival="327.00" arrivalLane="road_1_1_1_0" arrivalPos="300.00" arrivalSpeed="10.92" duration="61.00" routeLength="603.77" waitingTime="0.00" waitingCount="0" stopTime="0.00" timeLoss="5.41" rerouteNo="0" devices="tripinfo_E_N_50" vType="standard_car" speedFactor="0.85" vaporized=""/>
    <tripinfo id="N_S_52" depart="267.00" departLane="road_1_2_3_1" departPos="5.10" departSpeed="10.00" departDelay="0.00" arrival="328.00" arrivalLane="road_1_1_3_0" arrivalPos="300.00" arrivalSpeed="10.52" duration="61.00" routeLength="621.01" waitingTime="0.00" waitingCount="0" stopTime="0.00" timeLoss="4.57" rerouteNo="0" devices="tripinfo_N_S_52" vType="standard_car" speedFactor="1.02" vaporized=""/>
    <tripinfo id="S_N_55" depart="271.00" departLane="road_1_0_1_1" departPos="5.10" departSpeed="10.00" departDelay="0.00" arrival="337.00" arrivalLane="road_1_1_1_0" arrivalPos="300.00" arrivalSpeed="10.89" duration="66.00" routeLength="621.01" waitingTime="1.00" waitingCount="1" stopTime="0.00" timeLoss="9.86" rerouteNo="0" devices="tripinfo_S_N_55" vType="standard_car" speedFactor="1.00" vaporized=""/>
    <tripinfo id="N_S_57" depart="288.00" departLane="road_1_2_3_0" departPos="5.10" departSpeed="10.00" departDelay="0.00" arrival="347.00" arrivalLane="road_1_1_3_0" arrivalPos="300.00" arrivalSpeed="10.28" duration="59.00" routeLength="621.01" waitingTime="0.00" waitingCount="0" stopTime="0.00" timeLoss="2.53" rerouteNo="0" devices="tripinfo_N_S_57" vType="standard_car" speedFactor="1.14" vaporized=""/>
    <tripinfo id="N_W_58" depart="292.00" departLane="road_1_2_3_2" departPos="5.10" departSpeed="10.00" departDelay="0.00" arrival="351.00" arrivalLane="road_1_1_2_0" arrivalPos="300.00" arrivalSpeed="10.40" duration="59.00" routeLength="603.77" waitingTime="0.00" waitingCount="0" stopTime="0.00" timeLoss="3.87" rerouteNo="0" devices="tripinfo_N_W_58" vType="standard_car" speedFactor="1.02" vaporized=""/>
    <tripinfo id="S_N_59" depart="292.00" departLane="road_1_0_1_2" departPos="5.10" departSpeed="10.00" departDelay="0.00" arrival="351.00" arrivalLane="road_1_1_1_0" arrivalPos="300.00" arrivalSpeed="10.96" duration="59.00" routeLength="621.01" waitingTime="0.00" waitingCount="0" stopTime="0.00" timeLoss="2.90" rerouteNo="0" devices="tripinfo_S_N_59" vType="standard_car" speedFactor="0.97" vaporized=""/>
    <tripinfo id="S_E_61" depart="294.00" departLane="road_1_0_1_0" departPos="5.10" departSpeed="10.00" departDelay="0.00" arrival="352.00" arrivalLane="road_1_1_0_0" arrivalPos="300.00" arrivalSpeed="10.42" duration="58.00" routeLength="603.77" waitingTime="0.00" waitingCount="0" stopTime="0.00" timeLoss="3.17" rerouteNo="0" devices="tripinfo_S_E_61" vType="standard_car" speedFactor="1.12" vaporized=""/>
    <tripinfo id="N_S_62" depart="296.00" departLane="road_1_2_3_1" departPos="5.10" departSpeed="10.00" departDelay="0.00" arrival="355.00" arrivalLane="road_1_1_3_0" arrivalPos="300.00" arrivalSpeed="10.96" duration="59.00" routeLength="621.01" waitingTime="0.00" waitingCount="0" stopTime="0.00" timeLoss="2.91" rerouteNo="0" devices="tripinfo_N_S_62" vType="standard_car" speedFactor="1.02" vaporized=""/>
    <tripinfo id="W_S_63" depart="300.00" departLane="road_0_1_0_0" departPos="5.10" departSpeed="10.00" departDelay="0.00" arrival="359.00" arrivalLane="road_1_1_3_0" arrivalPos="300.00" arrivalSpeed="10.71" duration="59.00" routeLength="603.77" waitingTime="0.00" waitingCount="0" stopTime="0.00" timeLoss="3.89" rerouteNo="0" devices="tripinfo_W_S_63" vType="standard_car" speedFactor="0.99" vaporized=""/>
    <tripinfo id="N_W_64" depart="302.00" departLane="road_1_2_3_2" departPos="5.10" departSpeed="10.00" departDelay="0.00" arrival="365.00" arrivalLane="road_1_1_2_0" arrivalPos="300.00" arrivalSpeed="10.98" duration="63.00" routeLength="603.77" waitingTime="3.00" waitingCount="1" stopTime="0.00" timeLoss="7.84" rerouteNo="0" devices="tripinfo_N_W_64" vType="standard_car" speedFactor="0.94" vaporized=""/>
    <tripinfo id="S_E_66" depart="306.00" departLane="road_1_0_1_2" departPos="5.10" departSpeed="10.00" departDelay="0.00" arrival="366.00" arrivalLane="road_1_1_0_0" arrivalPos="300.00" arrivalSpeed="10.44" duration="60.00" routeLength="603.77" waitingTime="0.00" waitingCount="0" stopTime="0.00" timeLoss="4.38" rerouteNo="0" devices="tripinfo_S_E_66" vType="standard_car" speedFactor="0.91" vaporized=""/>
    <tripinfo id="W_S_68" depart="307.00" departLane="road_0_1_0_0" departPos="5.10" departSpeed="10.00" departDelay="0.00" arrival="366.00" arrivalLane="road_1_1_3_0" arrivalPos="300.00" arrivalSpeed="10.44" duration="59.00" routeLength="603.77" waitingTime="0.00" waitingCount="0" stopTime="0.00" timeLoss="3.55" rerouteNo="0" devices="tripinfo_W_S_68" vType="standard_car" speedFactor="1.04" vaporized=""/>
    <tripinfo id="E_N_69" depart="311.00" departLane="road_2_1_2_0" departPos="5.10" departSpeed="10.00" departDelay="0.00" arrival="370.00" arrivalLane="road_1_1_1_0" arrivalPos="300.00" arrivalSpeed="10.85" duration="59.00" routeLength="603.77" waitingTime="0.00" waitingCount="0" stopTime="0.00" timeLoss="3.80" rerouteNo="0" devices="tripinfo_E_N_69" vType="standard_car" speedFactor="1.02" vaporized=""/>
    <tripinfo id="N_W_70" depart="313.00" departLane="road_1_2_3_2" departPos="5.10" departSpeed="10.00" departDelay="0.00" arrival="372.00" arrivalLane="road_1_1_2_0" arrivalPos="300.00" arrivalSpeed="10.41" duration="59.00" routeLength="603.77" waitingTime="0.00" waitingCount="0" stopTime="0.00" timeLoss="3.45" rerouteNo="0" devices="tripinfo_N_W_70" vType="standard_car" speedFactor="1.02" vaporized=""/>
    <tripinfo id="W_S_71" depart="319.00" departLane="road_0_1_0_1" departPos="5.10" departSpeed="10.00" departDelay="0.00" arrival="378.00" arrivalLane="road_1_1_3_0" arrivalPos="300.00" arrivalSpeed="10.64" duration="59.00" routeLength="603.77" waitingTime="0.00" waitingCount="0" stopTime="0.00" timeLoss="3.90" rerouteNo="0" devices="tripinfo_W_S_71" vType="standard_car" speedFactor="0.97" vaporized=""/>
    <tripinfo id="E_N_73" depart="331.00" departLane="road_2_1_2_2" departPos="5.10" departSpeed="10.00" departDelay="0.00" arrival="390.00" arrivalLane="road_1_1_1_0" arrivalPos="300.00" arrivalSpeed="10.42" duration="59.00" routeLength="603.77" waitingTime="0.00" waitingCount="0" stopTime="0.00" timeLoss="3.59" rerouteNo="0" devices="tripinfo_E_N_73" vType="standard_car" speedFactor="1.06" vaporized=""/>
    <tripinfo id="N_W_78" depart="340.00" departLane="road_1_2_3_0" departPos="5.10" departSpeed="10.00" departDelay="0.00" arrival="399.00" arrivalLane="road_1_1_2_0" arrivalPos="300.00" arrivalSpeed="10.52" duration="59.00" routeLength="603.77" waitingTime="0.00" waitingCount="0" stopTime="0.00" timeLoss="3.66" rerouteNo="0" devices="tripinfo_N_W_78" vType="standard_car" speedFactor="1.01" vaporized=""/>
    <tripinfo id="E_N_79" depart="341.00" departLane="road_2_1_2_2" departPos="5.10" departSpeed="10.00" departDelay="0.00" arrival="400.00" arrivalLane="road_1_1_1_0" arrivalPos="300.00" arrivalSpeed="10.44" duration="59.00" routeLength="603.77" waitingTime="0.00" waitingCount="0" stopTime="0.00" timeLoss="3.50" rerouteNo="0" devices="tripinfo_E_N_79" vType="standard_car" speedFactor="1.09" vaporized=""/>
    <tripinfo id="S_E_80" depart="343.00" departLane="road_1_0_1_0" departPos="5.10" departSpeed="10.00" departDelay="0.00" arrival="402.00" arrivalLane="road_1_1_0_0" arrivalPos="300.00" arrivalSpeed="10.57" duration="59.00" routeLength="603.77" waitingTime="0.00" waitingCount="0" stopTime="0.00" timeLoss="3.69" rerouteNo="0" devices="tripinfo_S_E_80" vType="standard_car" speedFactor="1.03" vaporized=""/>
    <tripinfo id="S_E_81" depart="345.00" departLane="road_1_0_1_0" departPos="5.10" departSpeed="10.00" departDelay="0.00" arrival="405.00" arrivalLane="road_1_1_0_0" arrivalPos="300.00" arrivalSpeed="10.65" duration="60.00" routeLength="603.77" waitingTime="0.00" waitingCount="0" stopTime="0.00" timeLoss="4.38" rerouteNo="0" devices="tripinfo_S_E_81" vType="standard_car" speedFactor="1.00" vaporized=""/>
    <tripinfo id="W_S_83" depart="358.00" departLane="road_0_1_0_0" departPos="5.10" departSpeed="10.00" departDelay="0.00" arrival="417.00" arrivalLane="road_1_1_3_0" arrivalPos="300.00" arrivalSpeed="10.29" duration="59.00" routeLength="603.77" waitingTime="0.00" waitingCount="0" stopTime="0.00" timeLoss="3.94" rerouteNo="0" devices="tripinfo_W_S_83" vType="standard_car" speedFactor="0.97" vaporized=""/>
    <tripinfo id="N_S_85" depart="361.00" departLane="road_1_2_3_1" departPos="5.10" departSpeed="10.00" departDelay="0.00" arrival="420.00" arrivalLane="road_1_1_3_0" arrivalPos="300.00" arrivalSpeed="10.71" duration="59.00" routeLength="621.01" waitingTime="0.00" waitingCount="0" stopTime="0.00" timeLoss="2.97" rerouteNo="0" devices="tripinfo_N_S_85" vType="standard_car" speedFactor="0.98" vaporized=""/>