<?xml version="1.0" encoding="UTF-8"?>

<!-- generated on 2022-04-18 14:54:24 by Eclipse SUMO sumo Version 1.10.0
<configuration xmlns:xsi="http://www.w3.org/2001/XMLSchema-instance" xsi:noNamespaceSchemaLocation="http://sumo.dlr.de/xsd/sumoConfiguration.xsd">

    <input>
        <net-file value="./sumoNet1/net.net.xml"/>
        <route-files value="./sumoNet1/test5.rou.xml"/>
    </input>

    <output>
        <tripinfo-output value="tripinfo.xml"/>
    </output>

    <time>
        <begin value="0"/>
        <step-length value="1"/>
    </time>

    <processing>
        <time-to-teleport value="-1"/>
        <waiting-time-memory value="15"/>
    </processing>

    <traci_server>
        <remote-port value="49925"/>
    </traci_server>

    <gui_only>
        <quit-on-end value="true"/>
        <start value="true"/>
        <tracker-interval value="1"/>
    </gui_only>

</configuration>
-->

<tripinfos xmlns:xsi="http://www.w3.org/2001/XMLSchema-instance" xsi:noNamespaceSchemaLocation="http://sumo.dlr.de/xsd/tripinfo_file.xsd">
    <tripinfo id="W_S_0" depart="33.00" departLane="gneE6_2" departPos="3.10" departSpeed="10.00" departDelay="0.00" arrival="81.00" arrivalLane="-gneE7_0" arrivalPos="150.00" arrivalSpeed="14.66" duration="48.00" routeLength="611.83" waitingTime="0.00" waitingCount="0" stopTime="0.00" timeLoss="5.01" rerouteNo="0" devices="tripinfo_W_S_0" vType="standard_car" speedFactor="1.06" vaporized=""/>
    <tripinfo id="E_N_1" depart="54.00" departLane="gneE4_1" departPos="3.10" departSpeed="10.00" departDelay="0.00" arrival="106.00" arrivalLane="-gneE5_0" arrivalPos="150.00" arrivalSpeed="12.75" duration="52.00" routeLength="611.83" waitingTime="0.00" waitingCount="0" stopTime="0.00" timeLoss="4.07" rerouteNo="0" devices="tripinfo_E_N_1" vType="standard_car" speedFactor="0.94" vaporized=""/>
    <tripinfo id="S_E_2" depart="60.00" departLane="gneE7_2" departPos="3.10" departSpeed="10.00" departDelay="0.00" arrival="110.00" arrivalLane="-gneE4_0" arrivalPos="150.00" arrivalSpeed="13.73" duration="50.00" routeLength="611.83" waitingTime="0.00" waitingCount="0" stopTime="0.00" timeLoss="5.25" rerouteNo="0" devices="tripinfo_S_E_2" vType="standard_car" speedFactor="1.01" vaporized=""/>
    <tripinfo id="E_N_3" depart="72.00" departLane="gneE4_0" departPos="3.10" departSpeed="10.00" departDelay="0.00" arrival="119.00" arrivalLane="-gneE5_0" arrivalPos="150.00" arrivalSpeed="14.68" duration="47.00" routeLength="611.83" waitingTime="0.00" waitingCount="0" stopTime="0.00" timeLoss="5.12" rerouteNo="0" devices="tripinfo_E_N_3" vType="standard_car" speedFactor="1.08" vaporized=""/>
    <tripinfo id="E_N_4" depart="74.00" departLane="gneE4_2" departPos="3.10" departSpeed="10.00" departDelay="0.00" arrival="123.00" arrivalLane="-gneE5_0" arrivalPos="150.00" arrivalSpeed="13.92" duration="49.00" routeLength="611.83" waitingTime="0.00" waitingCount="0" stopTime="0.00" timeLoss="4.46" rerouteNo="0" devices="tripinfo_E_N_4" vType="standard_car" speedFactor="1.03" vaporized=""/>
    <tripinfo id="S_N_5" depart="98.00" departLane="gneE7_1" departPos="3.10" departSpeed="10.00" departDelay="0.00" arrival="165.00" arrivalLane="-gneE5_0" arrivalPos="150.00" arrivalSpeed="11.14" duration="67.00" routeLength="628.96" waitingTime="3.00" waitingCount="1" stopTime="0.00" timeLoss="12.21" rerouteNo="0" devices="tripinfo_S_N_5" vType="standard_car" speedFactor="0.83" vaporized=""/>
    <tripinfo id="W_E_6" depart="105.00" departLane="gneE6_1" departPos="3.10" departSpeed="10.00" departDelay="0.00" arrival="168.00" arrivalLane="-gneE4_0" arrivalPos="150.00" arrivalSpeed="14.24" duration="63.00" routeLength="628.96" waitingTime="7.00" waitingCount="1" stopTime="0.00" timeLoss="18.88" rerouteNo="0" devices="tripinfo_W_E_6" vType="standard_car" speedFactor="1.05" vaporized=""/>
    <tripinfo id="N_W_7" depart="126.00" departLane="gneE5_1" departPos="3.10" departSpeed="10.00" departDelay="0.00" arrival="181.00" arrivalLane="-gneE6_0" arrivalPos="150.00" arrivalSpeed="12.26" duration="55.00" routeLength="611.83" waitingTime="0.00" waitingCount="0" stopTime="0.00" timeLoss="4.26" rerouteNo="0" devices="tripinfo_N_W_7" vType="standard_car" speedFactor="0.89" vaporized=""/>
    <tripinfo id="N_W_8" depart="132.00" departLane="gneE5_1" departPos="3.10" departSpeed="10.00" departDelay="0.00" arrival="184.00" arrivalLane="-gneE6_0" arrivalPos="150.00" arrivalSpeed="13.00" duration="52.00" routeLength="611.83" waitingTime="0.00" waitingCount="0" stopTime="0.00" timeLoss="4.07" rerouteNo="0" devices="tripinfo_N_W_8" vType="standard_car" speedFactor="0.94" vaporized=""/>
    <tripinfo id="W_S_10" depart="145.00" departLane="gneE6_2" departPos="3.10" departSpeed="10.00" departDelay="0.00" arrival="195.00" arrivalLane="-gneE7_0" arrivalPos="150.00" arrivalSpeed="14.80" duration="50.00" routeLength="611.83" waitingTime="0.00" waitingCount="0" stopTime="0.00" timeLoss="8.35" rerouteNo="0" devices="tripinfo_W_S_10" vType="standard_car" speedFactor="1.09" vaporized=""/>
    <tripinfo id="E_N_13" depart="150.00" departLane="gneE4_0" departPos="3.10" departSpeed="10.00" departDelay="0.00" arrival="197.00" arrivalLane="-gneE5_0" arrivalPos="150.00" arrivalSpeed="14.82" duration="47.00" routeLength="611.83" waitingTime="0.00" waitingCount="0" stopTime="0.00" timeLoss="4.54" rerouteNo="0" devices="tripinfo_E_N_13" vType="standard_car" speedFactor="1.12" vaporized=""/>
    <tripinfo id="W_E_9" depart="142.00" departLane="gneE6_1" departPos="3.10" departSpeed="10.00" departDelay="0.00" arrival="198.00" arrivalLane="-gneE4_0" arrivalPos="150.00" arrivalSpeed="11.87" duration="56.00" routeLength="628.96" waitingTime="0.00" waitingCount="0" stopTime="0.00" timeLoss="2.93" rerouteNo="0" devices="tripinfo_W_E_9" vType="standard_car" speedFactor="0.86" vaporized=""/>
    <tripinfo id="W_S_12" depart="150.00" departLane="gneE6_0" departPos="3.10" departSpeed="10.00" departDelay="0.00" arrival="199.00" arrivalLane="-gneE7_0" arrivalPos="150.00" arrivalSpeed="14.22" duration="49.00" routeLength="611.83" waitingTime="0.00" waitingCount="0" stopTime="0.00" timeLoss="5.26" rerouteNo="0" devices="tripinfo_W_S_12" vType="standard_car" speedFactor="1.05" vaporized=""/>
    <tripinfo id="S_E_11" depart="147.00" departLane="gneE7_0" departPos="3.10" departSpeed="10.00" departDelay="0.00" arrival="204.00" arrivalLane="-gneE4_0" arrivalPos="150.00" arrivalSpeed="14.16" duration="57.00" routeLength="611.83" waitingTime="1.00" waitingCount="1" stopTime="0.00" timeLoss="12.77" rerouteNo="0" devices="tripinfo_S_E_11" vType="standard_car" speedFactor="1.03" vaporized=""/>
    <tripinfo id="S_E_15" depart="165.00" departLane="gneE7_0" departPos="3.10" departSpeed="10.00" departDelay="0.00" arrival="218.00" arrivalLane="-gneE4_0" arrivalPos="150.00" arrivalSpeed="12.82" duration="53.00" routeLength="611.83" waitingTime="0.00" waitingCount="0" stopTime="0.00" timeLoss="4.32" rerouteNo="0" devices="tripinfo_S_E_15" vType="standard_car" speedFactor="0.93" vaporized=""/>
    <tripinfo id="W_S_17" depart="169.00" departLane="gneE6_2" departPos="3.10" departSpeed="10.00" departDelay="0.00" arrival="221.00" arrivalLane="-gneE7_0" arrivalPos="150.00" arrivalSpeed="13.07" duration="52.00" routeLength="611.83" waitingTime="0.00" waitingCount="0" stopTime="0.00" timeLoss="4.39" rerouteNo="0" devices="tripinfo_W_S_17" vType="standard_car" speedFactor="0.94" vaporized=""/>
    <tripinfo id="S_E_19" depart="174.00" departLane="gneE7_1" departPos="3.10" departSpeed="10.00" departDelay="0.00" arrival="221.00" arrivalLane="-gneE4_0" arrivalPos="150.00" arrivalSpeed="14.89" duration="47.00" routeLength="611.83" waitingTime="0.00" waitingCount="0" stopTime="0.00" timeLoss="5.48" rerouteNo="0" devices="tripinfo_S_E_19" vType="standard_car" speedFactor="1.16" vaporized=""/>
    <tripinfo id="N_W_20" depart="175.00" departLane="gneE5_1" departPos="3.10" departSpeed="10.00" departDelay="0.00" arrival="224.00" arrivalLane="-gneE6_0" arrivalPos="150.00" arrivalSpeed="14.11" duration="49.00" routeLength="611.83" waitingTime="0.00" waitingCount="0" stopTime="0.00" timeLoss="4.39" rerouteNo="0" devices="tripinfo_N_W_20" vType="standard_car" speedFactor="1.02" vaporized=""/>
    <tripinfo id="S_E_23" depart="198.00" departLane="gneE7_0" departPos="3.10" departSpeed="10.00" departDelay="0.00" arrival="252.00" arrivalLane="-gneE4_0" arrivalPos="150.00" arrivalSpeed="11.95" duration="54.00" routeLength="611.83" waitingTime="0.00" waitingCount="0" stopTime="0.00" timeLoss="3.75" rerouteNo="0" devices="tripinfo_S_E_23" vType="standard_car" speedFactor="0.89" vaporized=""/>
    <tripinfo id="E_W_14" depart="162.00" departLane="gneE4_2" departPos="3.10" departSpeed="10.00" departDelay="0.00" arrival="258.00" arrivalLane="-gneE6_0" arrivalPos="150.00" arrivalSpeed="13.72" duration="96.00" routeLength="628.96" waitingTime="39.00" waitingCount="1" stopTime="0.00" timeLoss="49.38" rerouteNo="0" devices="tripinfo_E_W_14" vType="standard_car" speedFactor="0.99" vaporized=""/>
    <tripinfo id="W_S_21" depart="175.00" departLane="gneE6_2" departPos="3.10" departSpeed="10.00" departDelay="0.00" arrival="259.00" arrivalLane="-gneE7_0" arrivalPos="150.00" arrivalSpeed="13.91" duration="84.00" routeLength="611.83" waitingTime="25.00" waitingCount="1" stopTime="0.00" timeLoss="38.94" rerouteNo="0" devices="tripinfo_W_S_21" vType="standard_car" speedFactor="1.01" vaporized=""/>
    <tripinfo id="W_E_22" depart="186.00" departLane="gneE6_0" departPos="3.10" departSpeed="10.00" departDelay="0.00" arrival="259.00" arrivalLane="-gneE4_1" arrivalPos="150.00" arrivalSpeed="13.50" duration="73.00" routeLength="628.96" waitingTime="13.00" waitingCount="1" stopTime="0.00" timeLoss="26.44" rerouteNo="0" devices="tripinfo_W_E_22" vType="standard_car" speedFactor="0.98" vaporized=""/>
    <tripinfo id="W_E_16" depart="169.00" departLane="gneE6_1" departPos="3.10" departSpeed="10.00" departDelay="0.00" arrival="260.00" arrivalLane="-gneE4_0" arrivalPos="150.00" arrivalSpeed="11.97" duration="91.00" routeLength="628.96" waitingTime="28.00" waitingCount="1" stopTime="0.00" timeLoss="39.06" rerouteNo="0" devices="tripinfo_W_E_16" vType="standard_car" speedFactor="0.88" vaporized=""/>
    <tripinfo id="E_W_18" depart="172.00" departLane="gneE4_0" departPos="3.10" departSpeed="10.00" departDelay="0.00" arrival="260.00" arrivalLane="-gneE6_0" arrivalPos="150.00" arrivalSpeed="12.66" duration="88.00" routeLength="628.96" waitingTime="27.00" waitingCount="1" stopTime="0.00" timeLoss="38.90" rerouteNo="0" devices="tripinfo_E_W_18" vType="standard_car" speedFactor="0.94" vaporized=""/>
    <tripinfo id="S_E_24" depart="200.00" departLane="gneE7_2" departPos="3.10" departSpeed="10.00" departDelay="0.00" arrival="267.00" arrivalLane="-gneE4_0" arrivalPos="150.00" arrivalSpeed="11.07" duration="67.00" routeLength="611.83" waitingTime="4.00" waitingCount="1" stopTime="0.00" timeLoss="12.42" rerouteNo="0" devices="tripinfo_S_E_24" vType="standard_car" speedFactor="0.83" vaporized=""/>
    <tripinfo id="N_W_25" depart="211.00" departLane="gneE5_0" departPos="3.10" departSpeed="10.00" departDelay="0.00" arrival="267.00" arrivalLane="-gneE6_0" arrivalPos="150.00" arrivalSpeed="11.89" duration="56.00" routeLength="611.83" waitingTime="0.00" waitingCount="0" stopTime="0.00" timeLoss="4.32" rerouteNo="0" devices="tripinfo_N_W_25" vType="standard_car" speedFactor="0.87" vaporized=""/>
    <tripinfo id="N_S_32" depart="240.00" departLane="gneE5_2" departPos="3.10" departSpeed="10.00" departDelay="0.00" arrival="287.00" arrivalLane="-gneE7_2" arrivalPos="150.00" arrivalSpeed="13.83" duration="47.00" routeLength="628.96" waitingTime="0.00" waitingCount="0" stopTime="0.00" timeLoss="1.45" rerouteNo="0" devices="tripinfo_N_S_32" vType="standard_car" speedFactor="1.01" vaporized=""/>
    <tripinfo id="S_N_33" depart="245.00" departLane="gneE7_2" departPos="3.10" departSpeed="10.00" departDelay="0.00" arrival="289.00" arrivalLane="-gneE5_1" arrivalPos="150.00" arrivalSpeed="14.66" duration="44.00" routeLength="628.96" waitingTime="0.00" waitingCount="0" stopTime="0.00" timeLoss="1.47" rerouteNo="0" devices="tripinfo_S_N_33" vType="standard_car" speedFactor="1.17" vaporized=""/>
    <tripinfo id="S_E_31" depart="237.00" departLane="gneE7_0" departPos="3.10" departSpeed="10.00" departDelay="0.00" arrival="290.00" arrivalLane="-gneE4_0" arrivalPos="150.00" arrivalSpeed="14.69" duration="53.00" routeLength="611.83" waitingTime="0.00" waitingCount="0" stopTime="0.00" timeLoss="11.25" rerouteNo="0" devices="tripinfo_S_E_31" vType="standard_car" speedFactor="1.15" vaporized=""/>
    <tripinfo id="N_S_28" depart="231.00" departLane="gneE5_1" departPos="3.10" departSpeed="10.00" departDelay="0.00" arrival="291.00" arrivalLane="-gneE7_0" arrivalPos="150.00" arrivalSpeed="14.87" duration="60.00" routeLength="628.96" waitingTime="4.00" waitingCount="1" stopTime="0.00" timeLoss="17.21" rerouteNo="0" devices="tripinfo_N_S_28" vType="standard_car" speedFactor="1.13" vaporized=""/>
    <tripinfo id="S_N_27" depart="215.00" departLane="gneE7_2" departPos="3.10" departSpeed="10.00" departDelay="0.00" arrival="292.00" arrivalLane="-gneE5_0" arrivalPos="150.00" arrivalSpeed="12.71" duration="77.00" routeLength="628.96" waitingTime="18.00" waitingCount="1" stopTime="0.00" timeLoss="28.66" rerouteNo="0" devices="tripinfo_S_N_27" vType="standard_car" speedFactor="0.95" vaporized=""/>
    <tripinfo id="N_S_26" depart="214.00" departLane="gneE5_1" departPos="3.10" departSpeed="10.00" departDelay="0.00" arrival="293.00" arrivalLane="-gneE7_0" arrivalPos="150.00" arrivalSpeed="12.37" duration="79.00" routeLength="628.96" waitingTime="18.00" waitingCount="1" stopTime="0.00" timeLoss="28.93" rerouteNo="0" devices="tripinfo_N_S_26" vType="standard_car" speedFactor="0.92" vaporized=""/>
    <tripinfo id="N_W_29" depart="233.00" departLane="gneE5_0" departPos="3.10" departSpeed="10.00" departDelay="0.00" arrival="293.00" arrivalLane="-gneE6_0" arrivalPos="150.00" arrivalSpeed="12.45" duration="60.00" routeLength="611.83" waitingTime="1.00" waitingCount="1" stopTime="0.00" timeLoss="11.58" rerouteNo="0" devices="tripinfo_N_W_29" vType="standard_car" speedFactor="0.93" vaporized=""/>
    <tripinfo id="N_W_30" depart="237.00" departLane="gneE5_1" departPos="3.10" departSpeed="10.00" departDelay="0.00" arrival="294.00" arrivalLane="-gneE6_0" arrivalPos="150.00" arrivalSpeed="13.72" duration="57.00" routeLength="611.83" waitingTime="0.00" waitingCount="0" stopTime="0.00" timeLoss="15.42" rerouteNo="0" devices="tripinfo_N_W_30" vType="standard_car" speedFactor="1.18" vaporized=""/>
    <tripinfo id="S_E_34" depart="247.00" departLane="gneE7_1" departPos="3.10" departSpeed="10.00" departDelay="0.00" arrival="297.00" arrivalLane="-gneE4_0" arrivalPos="150.00" arrivalSpeed="13.61" duration="50.00" routeLength="611.83" waitingTime="0.00" waitingCount="0" stopTime="0.00" timeLoss="4.75" rerouteNo="0" devices="tripinfo_S_E_34" vType="standard_car" speedFactor="0.99" vaporized=""/>
    <tripinfo id="E_N_35" depart="249.00" departLane="gneE4_2" departPos="3.10" departSpeed="10.00" departDelay="0.00" arrival="299.00" arrivalLane="-gneE5_0" arrivalPos="150.00" arrivalSpeed="14.08" duration="50.00" routeLength="611.83" waitingTime="0.00" waitingCount="0" stopTime="0.00" timeLoss="4.81" rerouteNo="0" devices="tripinfo_E_N_35" vType="standard_car" speedFactor="1.02" vaporized=""/>
    <tripinfo id="W_S_36" depart="249.00" departLane="gneE6_1" departPos="3.10" departSpeed="10.00" departDelay="0.00" arrival="300.00" arrivalLane="-gneE7_0" arrivalPos="150.00" arrivalSpeed="13.42" duration="51.00" routeLength="611.83" waitingTime="0.00" waitingCount="0" stopTime="0.00" timeLoss="4.59" rerouteNo="0" devices="tripinfo_W_S_36" vType="standard_car" speedFactor="0.97" vaporized=""/>
    <tripinfo id="E_N_38" depart="254.00" departLane="gneE4_1" departPos="3.10" departSpeed="10.00" departDelay="0.00" arrival="302.00" arrivalLane="-gneE5_0" arrivalPos="150.00" arrivalSpeed="14.98" duration="48.00" routeLength="611.83" waitingTime="0.00" waitingCount="0" stopTime="0.00" timeLoss="5.94" rerouteNo="0" devices="tripinfo_E_N_38" vType="standard_car" speedFactor="1.10" vaporized=""/>
    <tripinfo id="E_N_40" depart="258.00" departLane="gneE4_2" departPos="3.10" departSpeed="10.00" departDelay="0.00" arrival="307.00" arrivalLane="-gneE5_0" arrivalPos="150.00" arrivalSpeed="14.06" duration="49.00" routeLength="611.83" waitingTime="0.00" waitingCount="0" stopTime="0.00" timeLoss="4.99" rerouteNo="0" devices="tripinfo_E_N_40" vType="standard_car" speedFactor="1.03" vaporized=""/>
    <tripinfo id="W_E_37" depart="251.00" departLane="gneE6_2" departPos="3.10" departSpeed="10.00" departDelay="1.00" arrival="309.00" arrivalLane="-gneE4_0" arrivalPos="150.00" arrivalSpeed="14.73" duration="58.00" routeLength="628.96" waitingTime="2.00" waitingCount="1" stopTime="0.00" timeLoss="15.51" rerouteNo="0" devices="tripinfo_W_E_37" vType="standard_car" speedFactor="1.18" vaporized=""/>
    <tripinfo id="W_S_39" depart="258.00" departLane="gneE6_1" departPos="3.10" departSpeed="10.00" departDelay="0.00" arrival="312.00" arrivalLane="-gneE7_0" arrivalPos="150.00" arrivalSpeed="12.39" duration="54.00" routeLength="611.83" waitingTime="0.00" waitingCount="0" stopTime="0.00" timeLoss="4.48" rerouteNo="0" devices="tripinfo_W_S_39" vType="standard_car" speedFactor="0.90" vaporized=""/>
    <tripinfo id="S_E_42" depart="259.00" departLane="gneE7_0" departPos="3.10" departSpeed="10.00" departDelay="0.00" arrival="315.00" arrivalLane="-gneE4_0" arrivalPos="150.00" arrivalSpeed="14.73" duration="56.00" routeLength="611.83" waitingTime="2.00" waitingCount="1" stopTime="0.00" timeLoss="14.42" rerouteNo="0" devices="tripinfo_S_E_42" vType="standard_car" speedFactor="1.09" vaporized=""/>
    <tripinfo id="W_S_45" depart="276.00" departLane="gneE6_1" departPos="3.10" departSpeed="10.00" departDelay="0.00" arrival="323.00" arrivalLane="-gneE7_0" arrivalPos="150.00" arrivalSpeed="14.69" duration="47.00" routeLength="611.83" waitingTime="0.00" waitingCount="0" stopTime="0.00" timeLoss="5.07" rerouteNo="0" devices="tripinfo_W_S_45" vType="standard_car" speedFactor="1.09" vaporized=""/>
    <tripinfo id="S_N_43" depart="268.00" departLane="gneE7_1" departPos="3.10" departSpeed="10.00" departDelay="0.00" arrival="335.00" arrivalLane="-gneE5_0" arrivalPos="150.00" arrivalSpeed="14.30" duration="67.00" routeLength="628.96" waitingTime="11.00" waitingCount="1" stopTime="0.00" timeLoss="23.23" rerouteNo="0" devices="tripinfo_S_N_43" vType="standard_car" speedFactor="1.04" vaporized=""/>
    <tripinfo id="N_S_44" depart="274.00" departLane="gneE5_1" departPos="3.10" departSpeed="10.00" departDelay="0.00" arrival="336.00" arrivalLane="-gneE7_0" arrivalPos="150.00" arrivalSpeed="14.43" duration="62.00" routeLength="628.96" waitingTime="5.00" waitingCount="1" stopTime="0.00" timeLoss="17.96" rerouteNo="0" devices="tripinfo_N_S_44" vType="standard_car" speedFactor="1.04" vaporized=""/>
    <tripinfo id="N_S_41" depart="259.00" departLane="gneE5_1" departPos="3.10" departSpeed="10.00" departDelay="0.00" arrival="337.00" arrivalLane="-gneE7_0" arrivalPos="150.00" arrivalSpeed="12.81" duration="78.00" routeLength="628.96" waitingTime="18.00" waitingCount="1" stopTime="0.00" timeLoss="30.29" rerouteNo="0" devices="tripinfo_N_S_41" vType="standard_car" speedFactor="0.96" vaporized=""/>
    <tripinfo id="W_E_52" depart="292.00" departLane="gneE6_2" departPos="3.10" departSpeed="10.00" departDelay="0.00" arrival="338.00" arrivalLane="-gneE4_0" arrivalPos="150.00" arrivalSpeed="13.80" duration="46.00" routeLength="628.96" waitingTime="0.00" waitingCount="0" stopTime="0.00" timeLoss="1.26" rerouteNo="0" devices="tripinfo_W_E_52" vType="standard_car" speedFactor="1.02" vaporized=""/>
    <tripinfo id="E_N_51" depart="291.00" departLane="gneE4_2" departPos="3.10" departSpeed="10.00" departDelay="0.00" arrival="343.00" arrivalLane="-gneE5_1" arrivalPos="150.00" arrivalSpeed="14.88" duration="52.00" routeLength="611.83" waitingTime="0.00" waitingCount="0" stopTime="0.00" timeLoss="10.43" rerouteNo="0" devices="tripinfo_E_N_51" vType="standard_car" speedFactor="1.17" vaporized=""/>
    <tripinfo id="E_N_47" depart="280.00" departLane="gneE4_1" departPos="3.10" departSpeed="10.00" departDelay="0.00" arrival="344.00" arrivalLane="-gneE5_0" arrivalPos="150.00" arrivalSpeed="12.36" duration="64.00" routeLength="611.83" waitingTime="5.00" waitingCount="1" stopTime="0.00" timeLoss="14.19" rerouteNo="0" devices="tripinfo_E_N_47" vType="standard_car" speedFactor="0.90" vaporized=""/>
    <tripinfo id="E_W_48" depart="281.00" departLane="gneE4_0" departPos="3.10" departSpeed="10.00" departDelay="0.00" arrival="345.00" arrivalLane="-gneE6_0" arrivalPos="150.00" arrivalSpeed="12.02" duration="64.00" routeLength="628.96" waitingTime="1.00" waitingCount="1" stopTime="0.00" timeLoss="11.62" rerouteNo="0" devices="tripinfo_E_W_48" vType="standard_car" speedFactor="0.88" vaporized=""/>
    <tripinfo id="E_N_53" depart="294.00" departLane="gneE4_1" departPos="3.10" departSpeed="10.00" departDelay="0.00" arrival="346.00" arrivalLane="-gneE5_0" arrivalPos="150.00" arrivalSpeed="13.99" duration="52.00" routeLength="611.83" waitingTime="0.00" waitingCount="0" stopTime="0.00" timeLoss="9.86" rerouteNo="0" devices="tripinfo_E_N_53" vType="standard_car" speedFactor="1.10" vaporized=""/>
    <tripinfo id="E_N_57" depart="306.00" departLane="gneE4_2" departPos="3.10" departSpeed="10.00" departDelay="0.00" arrival="353.00" arrivalLane="-gneE5_0" arrivalPos="150.00" arrivalSpeed="14.84" duration="47.00" routeLength="611.83" waitingTime="0.00" waitingCount="0" stopTime="0.00" timeLoss="4.64" rerouteNo="0" devices="tripinfo_E_N_57" vType="standard_car" speedFactor="1.14" vaporized=""/>
    <tripinfo id="E_N_60" depart="309.00" departLane="gneE4_0" departPos="3.10" departSpeed="10.00" departDelay="0.00" arrival="357.00" arrivalLane="-gneE5_0" arrivalPos="150.00" arrivalSpeed="14.56" duration="48.00" routeLength="611.83" waitingTime="0.00" waitingCount="0" stopTime="0.00" timeLoss="5.81" rerouteNo="0" devices="tripinfo_E_N_60" vType="standard_car" speedFactor="1.08" vaporized=""/>
    <tripinfo id="N_S_54" depart="296.00" departLane="gneE5_2" departPos="3.10" departSpeed="10.00" departDelay="0.00" arrival="368.00" arrivalLane="-gneE7_0" arrivalPos="150.00" arrivalSpeed="13.80" duration="72.00" routeLength="628.96" waitingTime="15.00" waitingCount="1" stopTime="0.00" timeLoss="26.60" rerouteNo="0" devices="tripinfo_N_S_54" vType="standard_car" speedFactor="1.00" vaporized=""/>
    <tripinfo id="N_S_61" depart="310.00" departLane="gneE5_2" departPos="3.10" departSpeed="10.00" departDelay="0.00" arrival="368.00" arrivalLane="-gneE7_1" arrivalPos="150.00" arrivalSpeed="14.98" duration="58.00" routeLength="628.96" waitingTime="2.00" waitingCount="1" stopTime="0.00" timeLoss="15.53" rerouteNo="0" devices="tripinfo_N_S_61" vType="standard_car" speedFactor="1.12" vaporized=""/>
    <tripinfo id="N_S_46" depart="277.00" departLane="gneE5_0" departPos="3.10" departSpeed="10.00" departDelay="0.00" arrival="370.00" arrivalLane="-gneE7_0" arrivalPos="150.00" arrivalSpeed="13.85" duration="93.00" routeLength="628.96" waitingTime="31.00" waitingCount="2" stopTime="0.00" timeLoss="46.97" rerouteNo="0" devices="tripinfo_N_S_46" vType="standard_car" speedFactor="1.00" vaporized=""/>
    <tripinfo id="S_N_50" depart="287.00" departLane="gneE7_2" departPos="3.10" departSpeed="10.00" departDelay="0.00" arrival="372.00" arrivalLane="-gneE5_0" arrivalPos="150.00" arrivalSpeed="11.57" duration="85.00" routeLength="628.96" waitingTime="22.00" waitingCount="1" stopTime="0.00" timeLoss="31.37" rerouteNo="0" devices="tripinfo_S_N_50" vType="standard_car" speedFactor="0.85" vaporized=""/>
    <tripinfo id="W_S_58" depart="307.00" departLane="gneE6_1" departPos="3.10" departSpeed="10.00" departDelay="0.00" arrival="375.00" arrivalLane="-gneE7_0" arrivalPos="150.00" arrivalSpeed="13.88" duration="68.00" routeLength="611.83" waitingTime="11.00" waitingCount="1" stopTime="0.00" timeLoss="23.82" rerouteNo="0" devices="tripinfo_W_S_58" vType="standard_car" speedFactor="1.02" vaporized=""/>
    <tripinfo id="N_W_49" depart="285.00" departLane="gneE5_0" departPos="3.10" departSpeed="10.00" departDelay="0.00" arrival="376.00" arrivalLane="-gneE6_0" arrivalPos="150.00" arrivalSpeed="11.56" duration="91.00" routeLength="611.83" waitingTime="25.00" waitingCount="1" stopTime="0.00" timeLoss="38.16" rerouteNo="0" devices="tripinfo_N_W_49" vType="standard_car" speedFactor="0.85" vaporized=""/>
    <tripinfo id="W_E_62" depart="312.00" departLane="gneE6_2" departPos="3.10" departSpeed="10.00" departDelay="0.00" arrival="376.00" arrivalLane="-gneE4_1" arrivalPos="150.00" arrivalSpeed="13.97" duration="64.00" routeLength="628.96" waitingTime="6.00" waitingCount="1" stopTime="0.00" timeLoss="18.58" rerouteNo="0" devices="tripinfo_W_E_62" vType="standard_car" speedFactor="1.02" vaporized=""/>
    <tripinfo id="W_E_59" depart="308.00" departLane="gneE6_2" departPos="3.10" departSpeed="10.00" departDelay="0.00" arrival="377.00" arrivalLane="-gneE4_0" arrivalPos="150.00" arrivalSpeed="13.43" duration="69.00" routeLength="628.96" waitingTime="8.00" waitingCount="1" stopTime="0.00" timeLoss="21.40" rerouteNo="0" devices="tripinfo_W_E_59" vType="standard_car" speedFactor="0.97" vaporized=""/>
    <tripinfo id="W_E_69" depart="330.00" departLane="gneE6_1" departPos="3.10" departSpeed="10.00" departDelay="0.00" arrival="377.00" arrivalLane="-gneE4_2" arrivalPos="150.00" arrivalSpeed="14.15" duration="47.00" routeLength="628.96" waitingTime="0.00" waitingCount="0" stopTime="0.00" timeLoss="2.39" rerouteNo="0" devices="tripinfo_W_E_69" vType="standard_car" speedFactor="1.02" vaporized=""/>
    <tripinfo id="W_E_56" depart="303.00" departLane="gneE6_2" departPos="3.10" departSpeed="10.00" departDelay="0.00" arrival="379.00" arrivalLane="-gneE4_0" arrivalPos="150.00" arrivalSpeed="12.28" duration="76.00" routeLength="628.96" waitingTime="12.00" waitingCount="1" stopTime="0.00" timeLoss="24.88" rerouteNo="0" devices="tripinfo_W_E_56" vType="standard_car" speedFactor="0.90" vaporized=""/>
    <tripinfo id="S_E_55" depart="300.00" departLane="gneE7_1" departPos="3.10" departSpeed="10.00" departDelay="0.00" arrival="384.00" arrivalLane="-gneE4_0" arrivalPos="150.00" arrivalSpeed="13.62" duration="84.00" routeLength="611.83" waitingTime="20.00" waitingCount="2" stopTime="0.00" timeLoss="38.41" rerouteNo="0" devices="tripinfo_S_E_55" vType="standard_car" speedFactor="1.00" vaporized=""/>
    <tripinfo id="W_S_71" depart="334.00" departLane="gneE6_0" departPos="3.10" departSpeed="10.00" departDelay="0.00" arrival="385.00" arrivalLane="-gneE7_0" arrivalPos="150.00" arrivalSpeed="13.17" duration="51.00" routeLength="611.83" waitingTime="0.00" waitingCount="0" stopTime="0.00" timeLoss="4.62" rerouteNo="0" devices="tripinfo_W_S_71" vType="standard_car" speedFactor="0.97" vaporized=""/>
    <tripinfo id="S_E_63" depart="315.00" departLane="gneE7_1" departPos="3.10" departSpeed="10.00" departDelay="0.00" arrival="386.00" arrivalLane="-gneE4_0" arrivalPos="150.00" arrivalSpeed="13.53" duration="71.00" routeLength="611.83" waitingTime="6.00" waitingCount="1" stopTime="0.00" timeLoss="24.79" rerouteNo="0" devices="tripinfo_S_E_63" vType="standard_car" speedFactor="0.99" vaporized=""/>
    <tripinfo id="S_E_70" depart="331.00" departLane="gneE7_0" departPos="3.10" departSpeed="10.00" departDelay="0.00" arrival="388.00" arrivalLane="-gneE4_1" arrivalPos="150.00" arrivalSpeed="13.86" duration="57.00" routeLength="611.83" waitingTime="0.00" waitingCount="0" stopTime="0.00" timeLoss="13.04" rerouteNo="0" devices="tripinfo_S_E_70" vType="standard_car" speedFactor="1.02" vaporized=""/>
    <tripinfo id="S_E_65" depart="324.00" departLane="gneE7_1" departPos="3.10" departSpeed="10.00" departDelay="0.00" arrival="389.00" arrivalLane="-gneE4_0" arrivalPos="150.00" arrivalSpeed="12.09" duration="65.00" routeLength="611.83" waitingTime="2.00" waitingCount="1" stopTime="0.00" timeLoss="13.99" rerouteNo="0" devices="tripinfo_S_E_65" vType="standard_car" speedFactor="0.88" vaporized=""/>
    <tripinfo id="W_S_76" depart="342.00" departLane="gneE6_1" departPos="3.10" departSpeed="10.00" departDelay="0.00" arrival="390.00" arrivalLane="-gneE7_0" arrivalPos="150.00" arrivalSpeed="13.87" duration="48.00" routeLength="611.83" waitingTime="0.00" waitingCount="0" stopTime="0.00" timeLoss="4.77" rerouteNo="0" devices="tripinfo_W_S_76" vType="standard_car" speedFactor="1.03" vaporized=""/>
    <tripinfo id="E_N_72" depart="338.00" departLane="gneE4_2" departPos="3.10" departSpeed="10.00" departDelay="0.00" arrival="391.00" arrivalLane="-gneE5_0" arrivalPos="150.00" arrivalSpeed="12.72" duration="53.00" routeLength="611.83" waitingTime="0.00" waitingCount="0" stopTime="0.00" timeLoss="4.70" rerouteNo="0" devices="tripinfo_E_N_72" vType="standard_car" speedFactor="0.94" vaporized=""/>
    <tripinfo id="E_N_73" depart="339.00" departLane="gneE4_1" departPos="3.10" departSpeed="10.00" departDelay="0.00" arrival="391.00" arrivalLane="-gneE5_1" arrivalPos="150.00" arrivalSpeed="14.55" duration="52.00" routeLength="611.83" waitingTime="0.00" waitingCount="0" stopTime="0.00" timeLoss="8.46" rerouteNo="0" devices="tripinfo_E_N_73" vType="standard_car" speedFactor="1.06" vaporized=""/>
    <tripinfo id="E_N_74" depart="341.00" departLane="gneE4_0" departPos="3.10" departSpeed="10.00" departDelay="0.00" arrival="393.00" arrivalLane="-gneE5_0" arrivalPos="150.00" arrivalSpeed="13.16" duration="52.00" routeLength="611.83" waitingTime="0.00" waitingCount="0" stopTime="0.00" timeLoss="4.82" rerouteNo="0" devices="tripinfo_E_N_74" vType="standard_car" speedFactor="0.96" vaporized=""/>