<?xml version="1.0" encoding="UTF-8"?>

<!-- generated on 2022-04-18 14:38:23 by Eclipse SUMO sumo Version 1.10.0
<configuration xmlns:xsi="http://www.w3.org/2001/XMLSchema-instance" xsi:noNamespaceSchemaLocation="http://sumo.dlr.de/xsd/sumoConfiguration.xsd">

    <input>
        <net-file value="./sumoNet1/net.net.xml"/>
        <route-files value="./sumoNet1/test13.rou.xml"/>
    </input>

    <output>
        <tripinfo-output value="tripinfo.xml"/>
    </output>

    <time>
        <begin value="0"/>
        <step-length value="1"/>
    </time>

    <processing>
        <time-to-teleport value="-1"/>
        <waiting-time-memory value="15"/>
    </processing>

    <traci_server>
        <remote-port value="49684"/>
    </traci_server>

    <gui_only>
        <quit-on-end value="true"/>
        <start value="true"/>
        <tracker-interval value="1"/>
    </gui_only>

</configuration>
-->

<tripinfos xmlns:xsi="http://www.w3.org/2001/XMLSchema-instance" xsi:noNamespaceSchemaLocation="http://sumo.dlr.de/xsd/tripinfo_file.xsd">
    <tripinfo id="E_W_0" depart="39.00" departLane="gneE4_2" departPos="3.10" departSpeed="10.00" departDelay="0.00" arrival="84.00" arrivalLane="-gneE6_1" arrivalPos="150.00" arrivalSpeed="14.32" duration="45.00" routeLength="628.96" waitingTime="0.00" waitingCount="0" stopTime="0.00" timeLoss="1.45" rerouteNo="0" devices="tripinfo_E_W_0" vType="standard_car" speedFactor="1.06" vaporized=""/>
    <tripinfo id="N_W_1" depart="56.00" departLane="gneE5_1" departPos="3.10" departSpeed="10.00" departDelay="0.00" arrival="108.00" arrivalLane="-gneE6_0" arrivalPos="150.00" arrivalSpeed="12.77" duration="52.00" routeLength="611.83" waitingTime="0.00" waitingCount="0" stopTime="0.00" timeLoss="4.42" rerouteNo="0" devices="tripinfo_N_W_1" vType="standard_car" speedFactor="0.94" vaporized=""/>
    <tripinfo id="N_W_3" depart="103.00" departLane="gneE5_0" departPos="3.10" departSpeed="10.00" departDelay="0.00" arrival="151.00" arrivalLane="-gneE6_0" arrivalPos="150.00" arrivalSpeed="14.79" duration="48.00" routeLength="611.83" waitingTime="0.00" waitingCount="0" stopTime="0.00" timeLoss="6.02" rerouteNo="0" devices="tripinfo_N_W_3" vType="standard_car" speedFactor="1.08" vaporized=""/>
    <tripinfo id="S_N_2" depart="97.00" departLane="gneE7_2" departPos="3.10" departSpeed="10.00" departDelay="0.00" arrival="159.00" arrivalLane="-gneE5_0" arrivalPos="150.00" arrivalSpeed="13.66" duration="62.00" routeLength="628.96" waitingTime="5.00" waitingCount="1" stopTime="0.00" timeLoss="16.87" rerouteNo="0" devices="tripinfo_S_N_2" vType="standard_car" speedFactor="1.01" vaporized=""/>
    <tripinfo id="E_N_4" depart="126.00" departLane="gneE4_2" departPos="3.10" departSpeed="10.00" departDelay="0.00" arrival="175.00" arrivalLane="-gneE5_0" arrivalPos="150.00" arrivalSpeed="13.82" duration="49.00" routeLength="611.83" waitingTime="0.00" waitingCount="0" stopTime="0.00" timeLoss="4.78" rerouteNo="0" devices="tripinfo_E_N_4" vType="standard_car" speedFactor="1.03" vaporized=""/>
    <tripinfo id="N_S_8" depart="136.00" departLane="gneE5_1" departPos="3.10" departSpeed="10.00" departDelay="0.00" arrival="186.00" arrivalLane="-gneE7_0" arrivalPos="150.00" arrivalSpeed="12.78" duration="50.00" routeLength="628.96" waitingTime="0.00" waitingCount="0" stopTime="0.00" timeLoss="1.33" rerouteNo="0" devices="tripinfo_N_S_8" vType="standard_car" speedFactor="0.94" vaporized=""/>
    <tripinfo id="N_W_5" depart="132.00" departLane="gneE5_1" departPos="3.10" departSpeed="10.00" departDelay="0.00" arrival="190.00" arrivalLane="-gneE6_0" arrivalPos="150.00" arrivalSpeed="11.40" duration="58.00" routeLength="611.83" waitingTime="0.00" waitingCount="0" stopTime="0.00" timeLoss="3.76" rerouteNo="0" devices="tripinfo_N_W_5" vType="standard_car" speedFactor="0.83" vaporized=""/>
    <tripinfo id="N_W_10" depart="145.00" departLane="gneE5_2" departPos="3.10" departSpeed="10.00" departDelay="0.00" arrival="192.00" arrivalLane="-gneE6_0" arrivalPos="150.00" arrivalSpeed="14.84" duration="47.00" routeLength="611.83" waitingTime="0.00" waitingCount="0" stopTime="0.00" timeLoss="4.98" rerouteNo="0" devices="tripinfo_N_W_10" vType="standard_car" speedFactor="1.09" vaporized=""/>
    <tripinfo id="N_W_13" depart="154.00" departLane="gneE5_0" departPos="3.10" departSpeed="10.00" departDelay="0.00" arrival="201.00" arrivalLane="-gneE6_0" arrivalPos="150.00" arrivalSpeed="14.54" duration="47.00" routeLength="611.83" waitingTime="0.00" waitingCount="0" stopTime="0.00" timeLoss="5.33" rerouteNo="0" devices="tripinfo_N_W_13" vType="standard_car" speedFactor="1.12" vaporized=""/>
    <tripinfo id="W_E_12" depart="154.00" departLane="gneE6_0" departPos="3.10" departSpeed="10.00" departDelay="0.00" arrival="205.00" arrivalLane="-gneE4_0" arrivalPos="150.00" arrivalSpeed="14.08" duration="51.00" routeLength="628.96" waitingTime="0.00" waitingCount="0" stopTime="0.00" timeLoss="7.52" rerouteNo="0" devices="tripinfo_W_E_12" vType="standard_car" speedFactor="1.05" vaporized=""/>
    <tripinfo id="E_W_6" depart="133.00" departLane="gneE4_1" departPos="3.10" departSpeed="10.00" departDelay="0.00" arrival="210.00" arrivalLane="-gneE6_0" arrivalPos="150.00" arrivalSpeed="14.08" duration="77.00" routeLength="628.96" waitingTime="19.00" waitingCount="1" stopTime="0.00" timeLoss="32.75" rerouteNo="0" devices="tripinfo_E_W_6" vType="standard_car" speedFactor="1.05" vaporized=""/>
    <tripinfo id="E_N_11" depart="152.00" departLane="gneE4_0" departPos="3.10" departSpeed="10.00" departDelay="0.00" arrival="212.00" arrivalLane="-gneE5_1" arrivalPos="150.00" arrivalSpeed="13.91" duration="60.00" routeLength="611.83" waitingTime="4.00" waitingCount="1" stopTime="0.00" timeLoss="16.16" rerouteNo="0" devices="tripinfo_E_N_11" vType="standard_car" speedFactor="1.03" vaporized=""/>
    <tripinfo id="E_N_7" depart="135.00" departLane="gneE4_1" departPos="3.10" departSpeed="10.00" departDelay="0.00" arrival="213.00" arrivalLane="-gneE5_0" arrivalPos="150.00" arrivalSpeed="12.23" duration="78.00" routeLength="611.83" waitingTime="16.00" waitingCount="1" stopTime="0.00" timeLoss="26.95" rerouteNo="0" devices="tripinfo_E_N_7" vType="standard_car" speedFactor="0.89" vaporized=""/>
    <tripinfo id="E_W_9" depart="144.00" departLane="gneE4_1" departPos="3.10" departSpeed="10.00" departDelay="0.00" arrival="213.00" arrivalLane="-gneE6_0" arrivalPos="150.00" arrivalSpeed="11.67" duration="69.00" routeLength="628.96" waitingTime="6.00" waitingCount="1" stopTime="0.00" timeLoss="15.83" rerouteNo="0" devices="tripinfo_E_W_9" vType="standard_car" speedFactor="0.86" vaporized=""/>
    <tripinfo id="S_E_15" depart="163.00" departLane="gneE7_0" departPos="3.10" departSpeed="10.00" departDelay="0.00" arrival="216.00" arrivalLane="-gneE4_0" arrivalPos="150.00" arrivalSpeed="12.59" duration="53.00" routeLength="611.83" waitingTime="0.00" waitingCount="0" stopTime="0.00" timeLoss="4.25" rerouteNo="0" devices="tripinfo_S_E_15" vType="standard_car" speedFactor="0.93" vaporized=""/>
    <tripinfo id="N_W_16" depart="165.00" departLane="gneE5_1" departPos="3.10" departSpeed="10.00" departDelay="0.00" arrival="221.00" arrivalLane="-gneE6_0" arrivalPos="150.00" arrivalSpeed="11.81" duration="56.00" routeLength="611.83" waitingTime="0.00" waitingCount="0" stopTime="0.00" timeLoss="4.01" rerouteNo="0" devices="tripinfo_N_W_16" vType="standard_car" speedFactor="0.88" vaporized=""/>
    <tripinfo id="S_N_17" depart="171.00" departLane="gneE7_2" departPos="3.10" departSpeed="10.00" departDelay="0.00" arrival="221.00" arrivalLane="-gneE5_1" arrivalPos="150.00" arrivalSpeed="12.96" duration="50.00" routeLength="628.96" waitingTime="0.00" waitingCount="0" stopTime="0.00" timeLoss="1.25" rerouteNo="0" devices="tripinfo_S_N_17" vType="standard_car" speedFactor="0.94" vaporized=""/>
    <tripinfo id="S_N_18" depart="172.00" departLane="gneE7_0" departPos="3.10" departSpeed="10.00" departDelay="0.00" arrival="222.00" arrivalLane="-gneE5_0" arrivalPos="150.00" arrivalSpeed="12.63" duration="50.00" routeLength="628.96" waitingTime="0.00" waitingCount="0" stopTime="0.00" timeLoss="1.22" rerouteNo="0" devices="tripinfo_S_N_18" vType="standard_car" speedFactor="0.94" vaporized=""/>
    <tripinfo id="S_E_20" depart="176.00" departLane="gneE7_1" departPos="3.10" departSpeed="10.00" departDelay="0.00" arrival="226.00" arrivalLane="-gneE4_0" arrivalPos="150.00" arrivalSpeed="13.80" duration="50.00" routeLength="611.83" waitingTime="0.00" waitingCount="0" stopTime="0.00" timeLoss="5.77" rerouteNo="0" devices="tripinfo_S_E_20" vType="standard_car" speedFactor="1.02" vaporized=""/>
    <tripinfo id="E_N_21" depart="182.00" departLane="gneE4_2" departPos="3.10" departSpeed="10.00" departDelay="0.00" arrival="232.00" arrivalLane="-gneE5_0" arrivalPos="150.00" arrivalSpeed="13.97" duration="50.00" routeLength="611.83" waitingTime="0.00" waitingCount="0" stopTime="0.00" timeLoss="5.02" rerouteNo="0" devices="tripinfo_E_N_21" vType="standard_car" speedFactor="1.01" vaporized=""/>
    <tripinfo id="W_E_14" depart="159.00" departLane="gneE6_2" departPos="3.10" departSpeed="10.00" departDelay="0.00" arrival="243.00" arrivalLane="-gneE4_0" arrivalPos="150.00" arrivalSpeed="13.45" duration="84.00" routeLength="628.96" waitingTime="26.00" waitingCount="1" stopTime="0.00" timeLoss="38.10" rerouteNo="0" devices="tripinfo_W_E_14" vType="standard_car" speedFactor="0.99" vaporized=""/>
    <tripinfo id="W_S_19" depart="175.00" departLane="gneE6_1" departPos="3.10" departSpeed="10.00" departDelay="0.00" arrival="243.00" arrivalLane="-gneE7_0" arrivalPos="150.00" arrivalSpeed="14.61" duration="68.00" routeLength="611.83" waitingTime="13.00" waitingCount="1" stopTime="0.00" timeLoss="26.15" rerouteNo="0" devices="tripinfo_W_S_19" vType="standard_car" speedFactor="1.16" vaporized=""/>
    <tripinfo id="S_E_23" depart="192.00" departLane="gneE7_0" departPos="3.10" departSpeed="10.00" departDelay="0.00" arrival="248.00" arrivalLane="-gneE4_0" arrivalPos="150.00" arrivalSpeed="12.28" duration="56.00" routeLength="611.83" waitingTime="0.00" waitingCount="0" stopTime="0.00" timeLoss="5.09" rerouteNo="0" devices="tripinfo_S_E_23" vType="standard_car" speedFactor="0.89" vaporized=""/>
    <tripinfo id="N_S_22" depart="186.00" departLane="gneE5_0" departPos="3.10" departSpeed="10.00" departDelay="0.00" arrival="250.00" arrivalLane="-gneE7_0" arrivalPos="150.00" arrivalSpeed="13.17" duration="64.00" routeLength="628.96" waitingTime="4.00" waitingCount="1" stopTime="0.00" timeLoss="16.84" rerouteNo="0" devices="tripinfo_N_S_22" vType="standard_car" speedFactor="0.98" vaporized=""/>
    <tripinfo id="S_N_26" depart="199.00" departLane="gneE7_1" departPos="3.10" departSpeed="10.00" departDelay="0.00" arrival="250.00" arrivalLane="-gneE5_0" arrivalPos="150.00" arrivalSpeed="12.68" duration="51.00" routeLength="628.96" waitingTime="0.00" waitingCount="0" stopTime="0.00" timeLoss="1.17" rerouteNo="0" devices="tripinfo_S_N_26" vType="standard_car" speedFactor="0.92" vaporized=""/>
    <tripinfo id="S_E_28" depart="203.00" departLane="gneE7_1" departPos="3.10" departSpeed="10.00" departDelay="0.00" arrival="250.00" arrivalLane="-gneE4_0" arrivalPos="150.00" arrivalSpeed="14.89" duration="47.00" routeLength="611.83" waitingTime="0.00" waitingCount="0" stopTime="0.00" timeLoss="5.56" rerouteNo="0" devices="tripinfo_S_E_28" vType="standard_car" speedFactor="1.13" vaporized=""/>
    <tripinfo id="N_S_24" depart="194.00" departLane="gneE5_2" departPos="3.10" departSpeed="10.00" departDelay="0.00" arrival="251.00" arrivalLane="-gneE7_0" arrivalPos="150.00" arrivalSpeed="11.25" duration="57.00" routeLength="628.96" waitingTime="0.00" waitingCount="0" stopTime="0.00" timeLoss="1.47" rerouteNo="0" devices="tripinfo_N_S_24" vType="standard_car" speedFactor="0.83" vaporized=""/>
    <tripinfo id="N_W_29" depart="205.00" departLane="gneE5_0" departPos="3.10" departSpeed="10.00" departDelay="0.00" arrival="258.00" arrivalLane="-gneE6_0" arrivalPos="150.00" arrivalSpeed="12.88" duration="53.00" routeLength="611.83" waitingTime="0.00" waitingCount="0" stopTime="0.00" timeLoss="4.21" rerouteNo="0" devices="tripinfo_N_W_29" vType="standard_car" speedFactor="0.93" vaporized=""/>
    <tripinfo id="N_W_30" depart="212.00" departLane="gneE5_1" departPos="3.10" departSpeed="10.00" departDelay="0.00" arrival="259.00" arrivalLane="-gneE6_0" arrivalPos="150.00" arrivalSpeed="14.94" duration="47.00" routeLength="611.83" waitingTime="0.00" waitingCount="0" stopTime="0.00" timeLoss="5.42" rerouteNo="0" devices="tripinfo_N_W_30" vType="standard_car" speedFactor="1.18" vaporized=""/>
    <tripinfo id="E_W_32" depart="224.00" departLane="gneE4_2" departPos="3.10" departSpeed="10.00" departDelay="0.00" arrival="271.00" arrivalLane="-gneE6_1" arrivalPos="150.00" arrivalSpeed="13.73" duration="47.00" routeLength="628.96" waitingTime="0.00" waitingCount="0" stopTime="0.00" timeLoss="1.50" rerouteNo="0" devices="tripinfo_E_W_32" vType="standard_car" speedFactor="1.01" vaporized=""/>
    <tripinfo id="E_W_31" depart="218.00" departLane="gneE4_0" departPos="3.10" departSpeed="10.00" departDelay="0.00" arrival="275.00" arrivalLane="-gneE6_0" arrivalPos="150.00" arrivalSpeed="14.75" duration="57.00" routeLength="628.96" waitingTime="2.00" waitingCount="1" stopTime="0.00" timeLoss="14.10" rerouteNo="0" devices="tripinfo_E_W_31" vType="standard_car" speedFactor="1.15" vaporized=""/>
    <tripinfo id="W_E_27" depart="202.00" departLane="gneE6_2" departPos="3.10" departSpeed="10.00" departDelay="0.00" arrival="278.00" arrivalLane="-gneE4_0" arrivalPos="150.00" arrivalSpeed="13.07" duration="76.00" routeLength="628.96" waitingTime="15.00" waitingCount="1" stopTime="0.00" timeLoss="27.39" rerouteNo="0" devices="tripinfo_W_E_27" vType="standard_car" speedFactor="0.95" vaporized=""/>
    <tripinfo id="W_S_34" depart="228.00" departLane="gneE6_1" departPos="3.10" departSpeed="10.00" departDelay="0.00" arrival="278.00" arrivalLane="-gneE7_0" arrivalPos="150.00" arrivalSpeed="13.70" duration="50.00" routeLength="611.83" waitingTime="0.00" waitingCount="0" stopTime="0.00" timeLoss="4.83" rerouteNo="0" devices="tripinfo_W_S_34" vType="standard_car" speedFactor="0.99" vaporized=""/>
    <tripinfo id="W_E_25" depart="198.00" departLane="gneE6_0" departPos="3.10" departSpeed="10.00" departDelay="0.00" arrival="279.00" arrivalLane="-gneE4_0" arrivalPos="150.00" arrivalSpeed="11.81" duration="81.00" routeLength="628.96" waitingTime="17.00" waitingCount="1" stopTime="0.00" timeLoss="28.34" rerouteNo="0" devices="tripinfo_W_E_25" vType="standard_car" speedFactor="0.87" vaporized=""/>
    <tripinfo id="W_S_35" depart="234.00" departLane="gneE6_2" departPos="3.10" departSpeed="10.00" departDelay="0.00" arrival="284.00" arrivalLane="-gneE7_0" arrivalPos="150.00" arrivalSpeed="13.91" duration="50.00" routeLength="611.83" waitingTime="0.00" waitingCount="0" stopTime="0.00" timeLoss="4.86" rerouteNo="0" devices="tripinfo_W_S_35" vType="standard_car" speedFactor="1.02" vaporized=""/>
    <tripinfo id="E_W_36" depart="236.00" departLane="gneE4_1" departPos="3.10" departSpeed="10.00" departDelay="0.00" arrival="284.00" arrivalLane="-gneE6_0" arrivalPos="150.00" arrivalSpeed="13.26" duration="48.00" routeLength="628.96" waitingTime="0.00" waitingCount="0" stopTime="0.00" timeLoss="1.44" rerouteNo="0" devices="tripinfo_E_W_36" vType="standard_car" speedFactor="0.97" vaporized=""/>
    <tripinfo id="E_N_37" depart="239.00" departLane="gneE4_1" departPos="3.10" departSpeed="10.00" departDelay="0.00" arrival="286.00" arrivalLane="-gneE5_0" arrivalPos="150.00" arrivalSpeed="14.87" duration="47.00" routeLength="611.83" waitingTime="0.00" waitingCount="0" stopTime="0.00" timeLoss="5.13" rerouteNo="0" devices="tripinfo_E_N_37" vType="standard_car" speedFactor="1.18" vaporized=""/>
    <tripinfo id="N_S_38" depart="249.00" departLane="gneE5_2" departPos="3.10" departSpeed="10.00" departDelay="0.00" arrival="304.00" arrivalLane="-gneE7_1" arrivalPos="150.00" arrivalSpeed="15.00" duration="55.00" routeLength="628.96" waitingTime="1.00" waitingCount="1" stopTime="0.00" timeLoss="13.02" rerouteNo="0" devices="tripinfo_N_S_38" vType="standard_car" speedFactor="1.10" vaporized=""/>
    <tripinfo id="N_S_33" depart="225.00" departLane="gneE5_2" departPos="3.10" departSpeed="10.00" departDelay="0.00" arrival="305.00" arrivalLane="-gneE7_0" arrivalPos="150.00" arrivalSpeed="14.75" duration="80.00" routeLength="628.96" waitingTime="24.00" waitingCount="1" stopTime="0.00" timeLoss="37.47" rerouteNo="0" devices="tripinfo_N_S_33" vType="standard_car" speedFactor="1.17" vaporized=""/>
    <tripinfo id="N_W_40" depart="251.00" departLane="gneE5_1" departPos="3.10" departSpeed="10.00" departDelay="0.00" arrival="310.00" arrivalLane="-gneE6_0" arrivalPos="150.00" arrivalSpeed="14.28" duration="59.00" routeLength="611.83" waitingTime="1.00" waitingCount="1" stopTime="0.00" timeLoss="15.55" rerouteNo="0" devices="tripinfo_N_W_40" vType="standard_car" speedFactor="1.03" vaporized=""/>
    <tripinfo id="S_E_41" depart="254.00" departLane="gneE7_2" departPos="3.10" departSpeed="10.00" departDelay="0.00" arrival="310.00" arrivalLane="-gneE4_0" arrivalPos="150.00" arrivalSpeed="12.84" duration="56.00" routeLength="611.83" waitingTime="0.00" waitingCount="0" stopTime="0.00" timeLoss="8.35" rerouteNo="0" devices="tripinfo_S_E_41" vType="standard_car" speedFactor="0.96" vaporized=""/>
    <tripinfo id="S_E_51" depart="283.00" departLane="gneE7_2" departPos="3.10" departSpeed="10.00" departDelay="0.00" arrival="333.00" arrivalLane="-gneE4_1" arrivalPos="150.00" arrivalSpeed="14.56" duration="50.00" routeLength="611.83" waitingTime="0.00" waitingCount="0" stopTime="0.00" timeLoss="8.59" rerouteNo="0" devices="tripinfo_S_E_51" vType="standard_car" speedFactor="1.17" vaporized=""/>
    <tripinfo id="S_E_48" depart="278.00" departLane="gneE7_1" departPos="3.10" departSpeed="10.00" departDelay="0.00" arrival="334.00" arrivalLane="-gneE4_0" arrivalPos="150.00" arrivalSpeed="12.09" duration="56.00" routeLength="611.83" waitingTime="0.00" waitingCount="0" stopTime="0.00" timeLoss="4.39" rerouteNo="0" devices="tripinfo_S_E_48" vType="standard_car" speedFactor="0.88" vaporized=""/>
    <tripinfo id="N_W_53" depart="284.00" departLane="gneE5_1" departPos="3.10" departSpeed="10.00" departDelay="0.00" arrival="335.00" arrivalLane="-gneE6_1" arrivalPos="150.00" arrivalSpeed="14.93" duration="51.00" routeLength="611.83" waitingTime="0.00" waitingCount="0" stopTime="0.00" timeLoss="9.12" rerouteNo="0" devices="tripinfo_N_W_53" vType="standard_car" speedFactor="1.10" vaporized=""/>
    <tripinfo id="N_W_49" depart="280.00" departLane="gneE5_0" departPos="3.10" departSpeed="10.00" departDelay="0.00" arrival="337.00" arrivalLane="-gneE6_0" arrivalPos="150.00" arrivalSpeed="11.66" duration="57.00" routeLength="611.83" waitingTime="0.00" waitingCount="0" stopTime="0.00" timeLoss="4.10" rerouteNo="0" devices="tripinfo_N_W_49" vType="standard_car" speedFactor="0.85" vaporized=""/>
    <tripinfo id="N_W_50" depart="282.00" departLane="gneE5_2" departPos="3.10" departSpeed="10.00" departDelay="1.00" arrival="341.00" arrivalLane="-gneE6_0" arrivalPos="150.00" arrivalSpeed="11.47" duration="59.00" routeLength="611.83" waitingTime="0.00" waitingCount="0" stopTime="0.00" timeLoss="6.13" rerouteNo="0" devices="tripinfo_N_W_50" vType="standard_car" speedFactor="0.85" vaporized=""/>
    <tripinfo id="W_S_42" depart="255.00" departLane="gneE6_1" departPos="3.10" departSpeed="10.00" departDelay="0.00" arrival="348.00" arrivalLane="-gneE7_0" arrivalPos="150.00" arrivalSpeed="14.73" duration="93.00" routeLength="611.83" waitingTime="36.00" waitingCount="1" stopTime="0.00" timeLoss="50.88" rerouteNo="0" devices="tripinfo_W_S_42" vType="standard_car" speedFactor="1.09" vaporized=""/>
    <tripinfo id="E_W_43" depart="260.00" departLane="gneE4_0" departPos="3.10" departSpeed="10.00" departDelay="0.00" arrival="348.00" arrivalLane="-gneE6_0" arrivalPos="150.00" arrivalSpeed="14.24" duration="88.00" routeLength="628.96" waitingTime="30.00" waitingCount="1" stopTime="0.00" timeLoss="43.41" rerouteNo="0" devices="tripinfo_E_W_43" vType="standard_car" speedFactor="1.04" vaporized=""/>
    <tripinfo id="S_N_59" depart="300.00" departLane="gneE7_2" departPos="3.10" departSpeed="10.00" departDelay="0.00" arrival="348.00" arrivalLane="-gneE5_2" arrivalPos="150.00" arrivalSpeed="13.39" duration="48.00" routeLength="628.96" waitingTime="0.00" waitingCount="0" stopTime="0.00" timeLoss="1.28" rerouteNo="0" devices="tripinfo_S_N_59" vType="standard_car" speedFactor="0.97" vaporized=""/>
    <tripinfo id="E_N_44" depart="261.00" departLane="gneE4_1" departPos="3.10" departSpeed="10.00" departDelay="0.00" arrival="349.00" arrivalLane="-gneE5_0" arrivalPos="150.00" arrivalSpeed="14.28" duration="88.00" routeLength="611.83" waitingTime="30.00" waitingCount="1" stopTime="0.00" timeLoss="44.67" rerouteNo="0" devices="tripinfo_E_N_44" vType="standard_car" speedFactor="1.04" vaporized=""/>
    <tripinfo id="W_S_45" depart="266.00" departLane="gneE6_1" departPos="3.10" departSpeed="10.00" departDelay="0.00" arrival="349.00" arrivalLane="-gneE7_0" arrivalPos="150.00" arrivalSpeed="14.64" duration="83.00" routeLength="611.83" waitingTime="28.00" waitingCount="1" stopTime="0.00" timeLoss="41.27" rerouteNo="0" devices="tripinfo_W_S_45" vType="standard_car" speedFactor="1.09" vaporized=""/>
    <tripinfo id="E_W_52" depart="283.00" departLane="gneE4_2" departPos="3.10" departSpeed="10.00" departDelay="0.00" arrival="349.00" arrivalLane="-gneE6_1" arrivalPos="150.00" arrivalSpeed="14.04" duration="66.00" routeLength="628.96" waitingTime="7.00" waitingCount="1" stopTime="0.00" timeLoss="20.50" rerouteNo="0" devices="tripinfo_E_W_52" vType="standard_car" speedFactor="1.02" vaporized=""/>
    <tripinfo id="W_E_39" depart="250.00" departLane="gneE6_1" departPos="3.10" departSpeed="10.00" departDelay="0.00" arrival="350.00" arrivalLane="-gneE4_0" arrivalPos="150.00" arrivalSpeed="12.30" duration="100.00" routeLength="628.96" waitingTime="37.00" waitingCount="1" stopTime="0.00" timeLoss="49.31" rerouteNo="0" devices="tripinfo_W_E_39" vType="standard_car" speedFactor="0.90" vaporized=""/>
    <tripinfo id="E_N_46" depart="271.00" departLane="gneE4_1" departPos="3.10" departSpeed="10.00" departDelay="0.00" arrival="351.00" arrivalLane="-gneE5_0" arrivalPos="150.00" arrivalSpeed="13.71" duration="80.00" routeLength="611.83" waitingTime="21.00" waitingCount="1" stopTime="0.00" timeLoss="34.76" rerouteNo="0" devices="tripinfo_E_N_46" vType="standard_car" speedFactor="1.00" vaporized=""/>
    <tripinfo id="E_W_47" depart="273.00" departLane="gneE4_0" departPos="3.10" departSpeed="10.00" departDelay="0.00" arrival="351.00" arrivalLane="-gneE6_0" arrivalPos="150.00" arrivalSpeed="12.17" duration="78.00" routeLength="628.96" waitingTime="15.00" waitingCount="1" stopTime="0.00" timeLoss="26.81" rerouteNo="0" devices="tripinfo_E_W_47" vType="standard_car" speedFactor="0.90" vaporized=""/>
    <tripinfo id="E_N_57" depart="298.00" departLane="gneE4_2" departPos="3.10" departSpeed="10.00" departDelay="0.00" arrival="352.00" arrivalLane="-gneE5_1" arrivalPos="150.00" arrivalSpeed="14.91" duration="54.00" routeLength="611.83" waitingTime="0.00" waitingCount="0" stopTime="0.00" timeLoss="11.66" rerouteNo="0" devices="tripinfo_E_N_57" vType="standard_car" speedFactor="1.14" vaporized=""/>
    <tripinfo id="S_E_62" depart="302.00" departLane="gneE7_2" departPos="3.10" departSpeed="10.00" departDelay="0.00" arrival="352.00" arrivalLane="-gneE4_0" arrivalPos="150.00" arrivalSpeed="13.92" duration="50.00" routeLength="611.83" waitingTime="0.00" waitingCount="0" stopTime="0.00" timeLoss="5.37" rerouteNo="0" devices="tripinfo_S_E_62" vType="standard_car" speedFactor="1.02" vaporized=""/>
    <tripinfo id="E_N_60" depart="302.00" departLane="gneE4_0" departPos="3.10" departSpeed="10.00" departDelay="0.00" arrival="353.00" arrivalLane="-gneE5_0" arrivalPos="150.00" arrivalSpeed="14.77" duration="51.00" routeLength="611.83" waitingTime="0.00" waitingCount="0" stopTime="0.00" timeLoss="8.69" rerouteNo="0" devices="tripinfo_E_N_60" vType="standard_car" speedFactor="1.08" vaporized=""/>
    <tripinfo id="N_S_54" depart="284.00" departLane="gneE5_2" departPos="3.10" departSpeed="10.00" departDelay="0.00" arrival="354.00" arrivalLane="-gneE7_0" arrivalPos="150.00" arrivalSpeed="13.64" duration="70.00" routeLength="628.96" waitingTime="11.00" waitingCount="1" stopTime="0.00" timeLoss="24.71" rerouteNo="0" devices="tripinfo_N_S_54" vType="standard_car" speedFactor="1.00" vaporized=""/>
    <tripinfo id="N_W_55" depart="296.00" departLane="gneE5_1" departPos="3.10" departSpeed="10.00" departDelay="0.00" arrival="355.00" arrivalLane="-gneE6_0" arrivalPos="150.00" arrivalSpeed="13.83" duration="59.00" routeLength="611.83" waitingTime="2.00" waitingCount="1" stopTime="0.00" timeLoss="13.88" rerouteNo="0" devices="tripinfo_N_W_55" vType="standard_car" speedFactor="1.00" vaporized=""/>
    <tripinfo id="S_N_63" depart="308.00" departLane="gneE7_1" departPos="3.10" departSpeed="10.00" departDelay="0.00" arrival="356.00" arrivalLane="-gneE5_0" arrivalPos="150.00" arrivalSpeed="13.31" duration="48.00" routeLength="628.96" waitingTime="0.00" waitingCount="0" stopTime="0.00" timeLoss="1.31" rerouteNo="0" devices="tripinfo_S_N_63" vType="standard_car" speedFactor="0.99" vaporized=""/>
    <tripinfo id="N_W_58" depart="299.00" departLane="gneE5_1" departPos="3.10" departSpeed="10.00" departDelay="0.00" arrival="357.00" arrivalLane="-gneE6_0" arrivalPos="150.00" arrivalSpeed="14.05" duration="58.00" routeLength="611.83" waitingTime="1.00" waitingCount="1" stopTime="0.00" timeLoss="13.42" rerouteNo="0" devices="tripinfo_N_W_58" vType="standard_car" speedFactor="1.02" vaporized=""/>
    <tripinfo id="S_N_64" depart="310.00" departLane="gneE7_0" departPos="3.10" departSpeed="10.00" departDelay="0.00" arrival="360.00" arrivalLane="-gneE5_0" arrivalPos="150.00" arrivalSpeed="13.01" duration="50.00" routeLength="628.96" waitingTime="0.00" waitingCount="0" stopTime="0.00" timeLoss="1.23" rerouteNo="0" devices="tripinfo_S_N_64" vType="standard_car" speedFactor="0.94" vaporized=""/>
    <tripinfo id="N_W_65" depart="311.00" departLane="gneE5_1" departPos="3.10" departSpeed="10.00" departDelay="0.00" arrival="366.00" arrivalLane="-gneE6_0" arrivalPos="150.00" arrivalSpeed="12.10" duration="55.00" routeLength="611.83" waitingTime="0.00" waitingCount="0" stopTime="0.00" timeLoss="3.88" rerouteNo="0" devices="tripinfo_N_W_65" vType="standard_car" speedFactor="0.88" vaporized=""/>
    <tripinfo id="E_W_68" depart="329.00" departLane="gneE4_0" departPos="3.10" departSpeed="10.00" departDelay="0.00" arrival="374.00" arrivalLane="-gneE6_1" arrivalPos="150.00" arrivalSpeed="14.34" duration="45.00" routeLength="628.96" waitingTime="0.00" waitingCount="0" stopTime="0.00" timeLoss="1.44" rerouteNo="0" devices="tripinfo_E_W_68" vType="standard_car" speedFactor="1.04" vaporized=""/>
    <tripinfo id="S_E_67" depart="321.00" departLane="gneE7_2" departPos="3.10" departSpeed="10.00" departDelay="0.00" arrival="375.00" arrivalLane="-gneE4_0" arrivalPos="150.00" arrivalSpeed="12.35" duration="54.00" routeLength="611.83" waitingTime="0.00" waitingCount="0" stopTime="0.00" timeLoss="4.03" rerouteNo="0" devices="tripinfo_S_E_67" vType="standard_car" speedFactor="0.91" vaporized=""/>
    <tripinfo id="E_W_61" depart="302.00" departLane="gneE4_2" departPos="3.10" departSpeed="10.00" departDelay="0.00" arrival="380.00" arrivalLane="-gneE6_0" arrivalPos="150.00" arrivalSpeed="14.71" duration="78.00" routeLength="628.96" waitingTime="23.00" waitingCount="1" stopTime="0.00" timeLoss="35.25" rerouteNo="0" devices="tripinfo_E_W_61" vType="standard_car" speedFactor="1.12" vaporized=""/>
    <tripinfo id="W_E_56" depart="296.00" departLane="gneE6_2" departPos="3.10" departSpeed="10.00" departDelay="0.00" arrival="383.00" arrivalLane="-gneE4_0" arrivalPos="150.00" arrivalSpeed="12.05" duration="87.00" routeLength="628.96" waitingTime="26.00" waitingCount="1" stopTime="0.00" timeLoss="36.60" rerouteNo="0" devices="tripinfo_W_E_56" vType="standard_car" speedFactor="0.90" vaporized=""/>
    <tripinfo id="N_W_69" depart="332.00" departLane="gneE5_2" departPos="3.10" departSpeed="10.00" departDelay="0.00" arrival="383.00" arrivalLane="-gneE6_0" arrivalPos="150.00" arrivalSpeed="13.97" duration="51.00" routeLength="611.83" waitingTime="0.00" waitingCount="0" stopTime="0.00" timeLoss="6.50" rerouteNo="0" devices="tripinfo_N_W_69" vType="standard_car" speedFactor="1.02" vaporized=""/>
    <tripinfo id="S_N_70" depart="336.00" departLane="gneE7_1" departPos="3.10" departSpeed="10.00" departDelay="0.00" arrival="383.00" arrivalLane="-gneE5_1" arrivalPos="150.00" arrivalSpeed="14.19" duration="47.00" routeLength="628.96" waitingTime="0.00" waitingCount="0" stopTime="0.00" timeLoss="1.75" rerouteNo="0" devices="tripinfo_S_N_70" vType="standard_car" speedFactor="1.02" vaporized=""/>
    <tripinfo id="E_N_66" depart="320.00" departLane="gneE4_0" departPos="3.10" departSpeed="10.00" departDelay="0.00" arrival="384.00" arrivalLane="-gneE5_0" arrivalPos="150.00" arrivalSpeed="12.33" duration="64.00" routeLength="611.83" waitingTime="3.00" waitingCount="1" stopTime="0.00" timeLoss="13.90" rerouteNo="0" devices="tripinfo_E_N_66" vType="standard_car" speedFactor="0.91" vaporized=""/>
    <tripinfo id="S_E_71" depart="338.00" departLane="gneE7_0" departPos="3.10" departSpeed="10.00" departDelay="0.00" arrival="389.00" arrivalLane="-gneE4_0" arrivalPos="150.00" arrivalSpeed="13.51" duration="51.00" routeLength="611.83" waitingTime="0.00" waitingCount="0" stopTime="0.00" timeLoss="4.34" rerouteNo="0" devices="tripinfo_S_E_71" vType="standard_car" speedFactor="0.97" vaporized=""/>