<?xml version="1.0" encoding="UTF-8"?>

<!-- generated on 2022-05-23 10:14:41 by Eclipse SUMO sumo Version 1.10.0
<configuration xmlns:xsi="http://www.w3.org/2001/XMLSchema-instance" xsi:noNamespaceSchemaLocation="http://sumo.dlr.de/xsd/sumoConfiguration.xsd">

    <input>
        <net-file value="./sumoNet4/net.net.xml"/>
        <route-files value="./sumoNet4/test258.rou.xml"/>
    </input>

    <output>
        <tripinfo-output value="tripinfo.xml"/>
    </output>

    <time>
        <begin value="0"/>
        <step-length value="1"/>
    </time>

    <processing>
        <time-to-teleport value="-1"/>
        <waiting-time-memory value="15"/>
    </processing>

    <traci_server>
        <remote-port value="56475"/>
    </traci_server>

    <gui_only>
        <quit-on-end value="true"/>
        <start value="true"/>
        <tracker-interval value="1"/>
    </gui_only>

</configuration>
-->

<tripinfos xmlns:xsi="http://www.w3.org/2001/XMLSchema-instance" xsi:noNamespaceSchemaLocation="http://sumo.dlr.de/xsd/tripinfo_file.xsd">
    <tripinfo id="S_E_0" depart="31.00" departLane="road_1_0_1_2" departPos="5.10" departSpeed="10.00" departDelay="0.00" arrival="77.00" arrivalLane="road_1_1_0_0" arrivalPos="300.00" arrivalSpeed="14.57" duration="46.00" routeLength="603.77" waitingTime="0.00" waitingCount="0" stopTime="0.00" timeLoss="3.58" rerouteNo="0" devices="tripinfo_S_E_0" vType="standard_car" speedFactor="1.06" vaporized=""/>
    <tripinfo id="W_S_4" depart="62.00" departLane="road_0_1_0_2" departPos="5.10" departSpeed="10.00" departDelay="0.00" arrival="109.00" arrivalLane="road_1_1_3_0" arrivalPos="300.00" arrivalSpeed="14.25" duration="47.00" routeLength="603.77" waitingTime="0.00" waitingCount="0" stopTime="0.00" timeLoss="3.85" rerouteNo="0" devices="tripinfo_W_S_4" vType="standard_car" speedFactor="1.03" vaporized=""/>
    <tripinfo id="N_S_8" depart="68.00" departLane="road_1_2_3_2" departPos="5.10" departSpeed="10.00" departDelay="0.00" arrival="118.00" arrivalLane="road_1_1_3_0" arrivalPos="300.00" arrivalSpeed="12.20" duration="50.00" routeLength="621.01" waitingTime="0.00" waitingCount="0" stopTime="0.00" timeLoss="2.01" rerouteNo="0" devices="tripinfo_N_S_8" vType="standard_car" speedFactor="0.94" vaporized=""/>
    <tripinfo id="E_N_10" depart="82.00" departLane="road_2_1_2_2" departPos="5.10" departSpeed="10.00" departDelay="0.00" arrival="127.00" arrivalLane="road_1_1_1_0" arrivalPos="300.00" arrivalSpeed="14.38" duration="45.00" routeLength="603.77" waitingTime="0.00" waitingCount="0" stopTime="0.00" timeLoss="4.20" rerouteNo="0" devices="tripinfo_E_N_10" vType="standard_car" speedFactor="1.09" vaporized=""/>
    <tripinfo id="E_W_1" depart="48.00" departLane="road_2_1_2_1" departPos="5.10" departSpeed="10.00" departDelay="0.00" arrival="135.00" arrivalLane="road_1_1_2_0" arrivalPos="300.00" arrivalSpeed="12.16" duration="87.00" routeLength="621.01" waitingTime="31.00" waitingCount="1" stopTime="0.00" timeLoss="39.18" rerouteNo="0" devices="tripinfo_E_W_1" vType="standard_car" speedFactor="0.94" vaporized=""/>
    <tripinfo id="E_W_2" depart="59.00" departLane="road_2_1_2_2" departPos="5.10" departSpeed="10.00" departDelay="0.00" arrival="136.00" arrivalLane="road_1_1_2_1" arrivalPos="300.00" arrivalSpeed="13.51" duration="77.00" routeLength="621.01" waitingTime="23.00" waitingCount="1" stopTime="0.00" timeLoss="32.69" rerouteNo="0" devices="tripinfo_E_W_2" vType="standard_car" speedFactor="1.01" vaporized=""/>
    <tripinfo id="E_W_6" depart="68.00" departLane="road_2_1_2_1" departPos="5.10" departSpeed="10.00" departDelay="2.00" arrival="141.00" arrivalLane="road_1_1_2_1" arrivalPos="300.00" arrivalSpeed="13.53" duration="73.00" routeLength="621.01" waitingTime="14.00" waitingCount="1" stopTime="0.00" timeLoss="29.41" rerouteNo="0" devices="tripinfo_E_W_6" vType="standard_car" speedFactor="1.05" vaporized=""/>
    <tripinfo id="E_W_5" depart="66.00" departLane="road_2_1_2_1" departPos="5.10" departSpeed="10.00" departDelay="0.00" arrival="142.00" arrivalLane="road_1_1_2_0" arrivalPos="300.00" arrivalSpeed="11.53" duration="76.00" routeLength="621.01" waitingTime="14.00" waitingCount="1" stopTime="0.00" timeLoss="22.03" rerouteNo="0" devices="tripinfo_E_W_5" vType="standard_car" speedFactor="0.83" vaporized=""/>
    <tripinfo id="E_W_9" depart="68.00" departLane="road_2_1_2_0" departPos="5.10" departSpeed="10.00" departDelay="0.00" arrival="145.00" arrivalLane="road_1_1_2_0" arrivalPos="300.00" arrivalSpeed="11.33" duration="77.00" routeLength="621.01" waitingTime="13.00" waitingCount="1" stopTime="0.00" timeLoss="24.66" rerouteNo="0" devices="tripinfo_E_W_9" vType="standard_car" speedFactor="0.86" vaporized=""/>
    <tripinfo id="E_W_7" depart="70.00" departLane="road_2_1_2_0" departPos="5.10" departSpeed="10.00" departDelay="2.00" arrival="147.00" arrivalLane="road_1_1_2_1" arrivalPos="300.00" arrivalSpeed="12.06" duration="77.00" routeLength="621.01" waitingTime="11.00" waitingCount="1" stopTime="0.00" timeLoss="25.72" rerouteNo="0" devices="tripinfo_E_W_7" vType="standard_car" speedFactor="0.89" vaporized=""/>
    <tripinfo id="E_W_12" depart="87.00" departLane="road_2_1_2_1" departPos="5.10" departSpeed="10.00" departDelay="0.00" arrival="148.00" arrivalLane="road_1_1_2_1" arrivalPos="300.00" arrivalSpeed="13.77" duration="61.00" routeLength="621.01" waitingTime="4.00" waitingCount="1" stopTime="0.00" timeLoss="18.10" rerouteNo="0" devices="tripinfo_E_W_12" vType="standard_car" speedFactor="1.05" vaporized=""/>
    <tripinfo id="E_N_20" depart="124.00" departLane="road_2_1_2_2" departPos="5.10" departSpeed="10.00" departDelay="0.00" arrival="171.00" arrivalLane="road_1_1_1_0" arrivalPos="300.00" arrivalSpeed="13.44" duration="47.00" routeLength="603.77" waitingTime="0.00" waitingCount="0" stopTime="0.00" timeLoss="3.24" rerouteNo="0" devices="tripinfo_E_N_20" vType="standard_car" speedFactor="1.02" vaporized=""/>
    <tripinfo id="N_W_23" depart="127.00" departLane="road_1_2_3_2" departPos="5.10" departSpeed="10.00" departDelay="0.00" arrival="181.00" arrivalLane="road_1_1_2_0" arrivalPos="300.00" arrivalSpeed="12.03" duration="54.00" routeLength="603.77" waitingTime="0.00" waitingCount="0" stopTime="0.00" timeLoss="3.92" rerouteNo="0" devices="tripinfo_N_W_23" vType="standard_car" speedFactor="0.89" vaporized=""/>
    <tripinfo id="E_W_28" depart="135.00" departLane="road_2_1_2_2" departPos="5.10" departSpeed="10.00" departDelay="0.00" arrival="183.00" arrivalLane="road_1_1_2_2" arrivalPos="300.00" arrivalSpeed="14.50" duration="48.00" routeLength="621.01" waitingTime="0.00" waitingCount="0" stopTime="0.00" timeLoss="5.70" rerouteNo="0" devices="tripinfo_E_W_28" vType="standard_car" speedFactor="1.13" vaporized=""/>
    <tripinfo id="S_E_26" depart="132.00" departLane="road_1_0_1_1" departPos="5.10" departSpeed="10.00" departDelay="0.00" arrival="185.00" arrivalLane="road_1_1_0_0" arrivalPos="300.00" arrivalSpeed="12.09" duration="53.00" routeLength="603.77" waitingTime="0.00" waitingCount="0" stopTime="0.00" timeLoss="4.09" rerouteNo="0" devices="tripinfo_S_E_26" vType="standard_car" speedFactor="0.92" vaporized=""/>
    <tripinfo id="E_W_24" depart="129.00" departLane="road_2_1_2_1" departPos="5.10" departSpeed="10.00" departDelay="0.00" arrival="186.00" arrivalLane="road_1_1_2_0" arrivalPos="300.00" arrivalSpeed="10.73" duration="57.00" routeLength="621.01" waitingTime="0.00" waitingCount="0" stopTime="0.00" timeLoss="2.57" rerouteNo="0" devices="tripinfo_E_W_24" vType="standard_car" speedFactor="0.83" vaporized=""/>
    <tripinfo id="E_N_31" depart="141.00" departLane="road_2_1_2_2" departPos="5.10" departSpeed="10.00" departDelay="0.00" arrival="186.00" arrivalLane="road_1_1_1_0" arrivalPos="300.00" arrivalSpeed="14.93" duration="45.00" routeLength="603.77" waitingTime="0.00" waitingCount="0" stopTime="0.00" timeLoss="3.48" rerouteNo="0" devices="tripinfo_E_N_31" vType="standard_car" speedFactor="1.15" vaporized=""/>
    <tripinfo id="E_N_37" depart="151.00" departLane="road_2_1_2_2" departPos="5.10" departSpeed="10.00" departDelay="0.00" arrival="196.00" arrivalLane="road_1_1_1_0" arrivalPos="300.00" arrivalSpeed="14.94" duration="45.00" routeLength="603.77" waitingTime="0.00" waitingCount="0" stopTime="0.00" timeLoss="3.55" rerouteNo="0" devices="tripinfo_E_N_37" vType="standard_car" speedFactor="1.18" vaporized=""/>
    <tripinfo id="N_S_11" depart="83.00" departLane="road_1_2_3_0" departPos="5.10" departSpeed="10.00" departDelay="0.00" arrival="200.00" arrivalLane="road_1_1_3_1" arrivalPos="300.00" arrivalSpeed="13.86" duration="117.00" routeLength="621.01" waitingTime="64.00" waitingCount="1" stopTime="0.00" timeLoss="72.98" rerouteNo="0" devices="tripinfo_N_S_11" vType="standard_car" speedFactor="1.03" vaporized=""/>
    <tripinfo id="N_S_13" depart="88.00" departLane="road_1_2_3_2" departPos="5.10" departSpeed="10.00" departDelay="0.00" arrival="202.00" arrivalLane="road_1_1_3_1" arrivalPos="300.00" arrivalSpeed="14.84" duration="114.00" routeLength="621.01" waitingTime="62.00" waitingCount="1" stopTime="0.00" timeLoss="71.79" rerouteNo="0" devices="tripinfo_N_S_13" vType="standard_car" speedFactor="1.12" vaporized=""/>
    <tripinfo id="N_S_25" depart="130.00" departLane="road_1_2_3_0" departPos="5.10" departSpeed="10.00" departDelay="0.00" arrival="208.00" arrivalLane="road_1_1_3_0" arrivalPos="300.00" arrivalSpeed="11.98" duration="78.00" routeLength="621.01" waitingTime="16.00" waitingCount="1" stopTime="0.00" timeLoss="25.85" rerouteNo="0" devices="tripinfo_N_S_25" vType="standard_car" speedFactor="0.87" vaporized=""/>
    <tripinfo id="N_S_27" depart="133.00" departLane="road_1_2_3_0" departPos="5.10" departSpeed="10.00" departDelay="0.00" arrival="208.00" arrivalLane="road_1_1_3_1" arrivalPos="300.00" arrivalSpeed="12.47" duration="75.00" routeLength="621.01" waitingTime="15.00" waitingCount="1" stopTime="0.00" timeLoss="27.76" rerouteNo="0" devices="tripinfo_N_S_27" vType="standard_car" speedFactor="0.95" vaporized=""/>
    <tripinfo id="S_E_40" depart="162.00" departLane="road_1_0_1_1" departPos="5.10" departSpeed="10.00" departDelay="0.00" arrival="209.00" arrivalLane="road_1_1_0_0" arrivalPos="300.00" arrivalSpeed="13.74" duration="47.00" routeLength="603.77" waitingTime="0.00" waitingCount="0" stopTime="0.00" timeLoss="4.17" rerouteNo="0" devices="tripinfo_S_E_40" vType="standard_car" speedFactor="1.03" vaporized=""/>
    <tripinfo id="N_S_35" depart="147.00" departLane="road_1_2_3_1" departPos="5.10" departSpeed="10.00" departDelay="0.00" arrival="210.00" arrivalLane="road_1_1_3_1" arrivalPos="300.00" arrivalSpeed="13.56" duration="63.00" routeLength="621.01" waitingTime="6.00" waitingCount="1" stopTime="0.00" timeLoss="18.60" rerouteNo="0" devices="tripinfo_N_S_35" vType="standard_car" speedFactor="1.02" vaporized=""/>
    <tripinfo id="N_S_39" depart="161.00" departLane="road_1_2_3_0" departPos="5.10" departSpeed="10.00" departDelay="0.00" arrival="213.00" arrivalLane="road_1_1_3_0" arrivalPos="300.00" arrivalSpeed="11.68" duration="52.00" routeLength="621.01" waitingTime="0.00" waitingCount="0" stopTime="0.00" timeLoss="1.98" rerouteNo="0" devices="tripinfo_N_S_39" vType="standard_car" speedFactor="0.90" vaporized=""/>
    <tripinfo id="S_E_41" depart="164.00" departLane="road_1_0_1_1" departPos="5.10" departSpeed="10.00" departDelay="0.00" arrival="215.00" arrivalLane="road_1_1_0_0" arrivalPos="300.00" arrivalSpeed="12.88" duration="51.00" routeLength="603.77" waitingTime="0.00" waitingCount="0" stopTime="0.00" timeLoss="3.71" rerouteNo="0" devices="tripinfo_S_E_41" vType="standard_car" speedFactor="0.96" vaporized=""/>
    <tripinfo id="W_S_42" depart="171.00" departLane="road_0_1_0_1" departPos="5.10" departSpeed="10.00" departDelay="0.00" arrival="216.00" arrivalLane="road_1_1_3_0" arrivalPos="300.00" arrivalSpeed="14.45" duration="45.00" routeLength="603.77" waitingTime="0.00" waitingCount="0" stopTime="0.00" timeLoss="3.75" rerouteNo="0" devices="tripinfo_W_S_42" vType="standard_car" speedFactor="1.09" vaporized=""/>
    <tripinfo id="E_N_43" depart="171.00" departLane="road_2_1_2_0" departPos="5.10" departSpeed="10.00" departDelay="0.00" arrival="218.00" arrivalLane="road_1_1_1_0" arrivalPos="300.00" arrivalSpeed="14.28" duration="47.00" routeLength="603.77" waitingTime="0.00" waitingCount="0" stopTime="0.00" timeLoss="4.31" rerouteNo="0" devices="tripinfo_E_N_43" vType="standard_car" speedFactor="1.04" vaporized=""/>
    <tripinfo id="N_S_45" depart="174.00" departLane="road_1_2_3_0" departPos="5.10" departSpeed="10.00" departDelay="0.00" arrival="218.00" arrivalLane="road_1_1_3_1" arrivalPos="300.00" arrivalSpeed="14.49" duration="44.00" routeLength="621.01" waitingTime="0.00" waitingCount="0" stopTime="0.00" timeLoss="1.91" rerouteNo="0" devices="tripinfo_N_S_45" vType="standard_car" speedFactor="1.09" vaporized=""/>
    <tripinfo id="S_E_44" depart="172.00" departLane="road_1_0_1_1" departPos="5.10" departSpeed="10.00" departDelay="0.00" arrival="219.00" arrivalLane="road_1_1_0_0" arrivalPos="300.00" arrivalSpeed="14.03" duration="47.00" routeLength="603.77" waitingTime="0.00" waitingCount="0" stopTime="0.00" timeLoss="3.48" rerouteNo="0" devices="tripinfo_S_E_44" vType="standard_car" speedFactor="1.04" vaporized=""/>
    <tripinfo id="E_N_46" depart="177.00" departLane="road_2_1_2_0" departPos="5.10" departSpeed="10.00" departDelay="0.00" arrival="228.00" arrivalLane="road_1_1_1_0" arrivalPos="300.00" arrivalSpeed="13.30" duration="51.00" routeLength="603.77" waitingTime="0.00" waitingCount="0" stopTime="0.00" timeLoss="6.48" rerouteNo="0" devices="tripinfo_E_N_46" vType="standard_car" speedFactor="1.00" vaporized=""/>
    <tripinfo id="N_S_51" depart="186.00" departLane="road_1_2_3_2" departPos="5.10" departSpeed="10.00" departDelay="0.00" arrival="229.00" arrivalLane="road_1_1_3_1" arrivalPos="300.00" arrivalSpeed="14.52" duration="43.00" routeLength="621.01" waitingTime="0.00" waitingCount="0" stopTime="0.00" timeLoss="1.59" rerouteNo="0" devices="tripinfo_N_S_51" vType="standard_car" speedFactor="1.17" vaporized=""/>
    <tripinfo id="S_N_14" depart="90.00" departLane="road_1_0_1_0" departPos="5.10" departSpeed="10.00" departDelay="0.00" arrival="233.00" arrivalLane="road_1_1_1_0" arrivalPos="300.00" arrivalSpeed="13.66" duration="143.00" routeLength="621.01" waitingTime="89.00" waitingCount="1" stopTime="0.00" timeLoss="97.87" rerouteNo="0" devices="tripinfo_S_N_14" vType="standard_car" speedFactor="0.99" vaporized=""/>
    <tripinfo id="W_S_53" depart="188.00" departLane="road_0_1_0_2" departPos="5.10" departSpeed="10.00" departDelay="0.00" arrival="233.00" arrivalLane="road_1_1_3_0" arrivalPos="300.00" arrivalSpeed="14.26" duration="45.00" routeLength="603.77" waitingTime="0.00" waitingCount="0" stopTime="0.00" timeLoss="4.24" rerouteNo="0" devices="tripinfo_W_S_53" vType="standard_car" speedFactor="1.10" vaporized=""/>
    <tripinfo id="S_E_48" depart="180.00" departLane="road_1_0_1_2" departPos="5.10" departSpeed="10.00" departDelay="0.00" arrival="235.00" arrivalLane="road_1_1_0_0" arrivalPos="300.00" arrivalSpeed="11.72" duration="55.00" routeLength="603.77" waitingTime="0.00" waitingCount="0" stopTime="0.00" timeLoss="4.50" rerouteNo="0" devices="tripinfo_S_E_48" vType="standard_car" speedFactor="0.88" vaporized=""/>
    <tripinfo id="S_N_15" depart="94.00" departLane="road_1_0_1_1" departPos="5.10" departSpeed="10.00" departDelay="0.00" arrival="237.00" arrivalLane="road_1_1_1_0" arrivalPos="300.00" arrivalSpeed="12.47" duration="143.00" routeLength="621.01" waitingTime="87.00" waitingCount="1" stopTime="0.00" timeLoss="94.03" rerouteNo="0" devices="tripinfo_S_N_15" vType="standard_car" speedFactor="0.93" vaporized=""/>
    <tripinfo id="N_W_49" depart="181.00" departLane="road_1_2_3_2" departPos="5.10" departSpeed="10.00" departDelay="0.00" arrival="237.00" arrivalLane="road_1_1_2_0" arrivalPos="300.00" arrivalSpeed="11.71" duration="56.00" routeLength="603.77" waitingTime="0.00" waitingCount="0" stopTime="0.00" timeLoss="4.02" rerouteNo="0" devices="tripinfo_N_W_49" vType="standard_car" speedFactor="0.85" vaporized=""/>
    <tripinfo id="S_N_17" depart="108.00" departLane="road_1_0_1_2" departPos="5.10" departSpeed="10.00" departDelay="0.00" arrival="238.00" arrivalLane="road_1_1_1_1" arrivalPos="300.00" arrivalSpeed="12.72" duration="130.00" routeLength="621.01" waitingTime="74.00" waitingCount="1" stopTime="0.00" timeLoss="82.38" rerouteNo="0" devices="tripinfo_S_N_17" vType="standard_car" speedFactor="0.94" vaporized=""/>
    <tripinfo id="S_E_50" depart="183.00" departLane="road_1_0_1_1" departPos="5.10" departSpeed="10.00" departDelay="0.00" arrival="239.00" arrivalLane="road_1_1_0_0" arrivalPos="300.00" arrivalSpeed="11.64" duration="56.00" routeLength="603.77" waitingTime="0.00" waitingCount="0" stopTime="0.00" timeLoss="3.83" rerouteNo="0" devices="tripinfo_S_E_50" vType="standard_car" speedFactor="0.85" vaporized=""/>
    <tripinfo id="S_N_19" depart="115.00" departLane="road_1_0_1_0" departPos="5.10" departSpeed="10.00" departDelay="0.00" arrival="240.00" arrivalLane="road_1_1_1_1" arrivalPos="300.00" arrivalSpeed="14.25" duration="125.00" routeLength="621.01" waitingTime="70.00" waitingCount="1" stopTime="0.00" timeLoss="83.03" rerouteNo="0" devices="tripinfo_S_N_19" vType="standard_car" speedFactor="1.16" vaporized=""/>
    <tripinfo id="E_N_55" depart="192.00" departLane="road_2_1_2_1" departPos="5.10" departSpeed="10.00" departDelay="0.00" arrival="241.00" arrivalLane="road_1_1_1_0" arrivalPos="300.00" arrivalSpeed="13.17" duration="49.00" routeLength="603.77" waitingTime="0.00" waitingCount="0" stopTime="0.00" timeLoss="4.43" rerouteNo="0" devices="tripinfo_E_N_55" vType="standard_car" speedFactor="1.00" vaporized=""/>
    <tripinfo id="S_N_36" depart="148.00" departLane="road_1_0_1_1" departPos="5.10" departSpeed="10.00" departDelay="0.00" arrival="242.00" arrivalLane="road_1_1_1_2" arrivalPos="300.00" arrivalSpeed="13.26" duration="94.00" routeLength="621.01" waitingTime="37.00" waitingCount="1" stopTime="0.00" timeLoss="47.19" rerouteNo="0" devices="tripinfo_S_N_36" vType="standard_car" speedFactor="0.97" vaporized=""/>
    <tripinfo id="S_N_52" depart="188.00" departLane="road_1_0_1_1" departPos="5.10" departSpeed="10.00" departDelay="0.00" arrival="243.00" arrivalLane="road_1_1_1_1" arrivalPos="300.00" arrivalSpeed="14.10" duration="55.00" routeLength="621.01" waitingTime="0.00" waitingCount="0" stopTime="0.00" timeLoss="10.69" rerouteNo="0" devices="tripinfo_S_N_52" vType="standard_car" speedFactor="1.02" vaporized=""/>
    <tripinfo id="N_S_56" depart="195.00" departLane="road_1_2_3_2" departPos="5.10" departSpeed="10.00" departDelay="0.00" arrival="247.00" arrivalLane="road_1_1_3_0" arrivalPos="300.00" arrivalSpeed="11.73" duration="52.00" routeLength="621.01" waitingTime="0.00" waitingCount="0" stopTime="0.00" timeLoss="1.95" rerouteNo="0" devices="tripinfo_N_S_56" vType="standard_car" speedFactor="0.90" vaporized=""/>
    <tripinfo id="S_E_58" depart="203.00" departLane="road_1_0_1_2" departPos="5.10" departSpeed="10.00" departDelay="0.00" arrival="250.00" arrivalLane="road_1_1_0_0" arrivalPos="300.00" arrivalSpeed="13.29" duration="47.00" routeLength="603.77" waitingTime="0.00" waitingCount="0" stopTime="0.00" timeLoss="3.94" rerouteNo="0" devices="tripinfo_S_E_58" vType="standard_car" speedFactor="1.02" vaporized=""/>
    <tripinfo id="E_N_59" depart="204.00" departLane="road_2_1_2_2" departPos="5.10" departSpeed="10.00" departDelay="0.00" arrival="253.00" arrivalLane="road_1_1_1_0" arrivalPos="300.00" arrivalSpeed="13.34" duration="49.00" routeLength="603.77" waitingTime="0.00" waitingCount="0" stopTime="0.00" timeLoss="3.68" rerouteNo="0" devices="tripinfo_E_N_59" vType="standard_car" speedFactor="0.97" vaporized=""/>
    <tripinfo id="W_S_60" depart="211.00" departLane="road_0_1_0_1" departPos="5.10" departSpeed="10.00" departDelay="0.00" arrival="260.00" arrivalLane="road_1_1_3_0" arrivalPos="300.00" arrivalSpeed="14.68" duration="49.00" routeLength="603.77" waitingTime="1.00" waitingCount="1" stopTime="0.00" timeLoss="7.89" rerouteNo="0" devices="tripinfo_W_S_60" vType="standard_car" speedFactor="1.08" vaporized=""/>
    <tripinfo id="W_S_61" depart="213.00" departLane="road_0_1_0_0" departPos="5.10" departSpeed="10.00" departDelay="0.00" arrival="262.00" arrivalLane="road_1_1_3_0" arrivalPos="300.00" arrivalSpeed="14.13" duration="49.00" routeLength="603.77" waitingTime="0.00" waitingCount="0" stopTime="0.00" timeLoss="7.58" rerouteNo="0" devices="tripinfo_W_S_61" vType="standard_car" speedFactor="1.12" vaporized=""/>
    <tripinfo id="S_N_62" depart="214.00" departLane="road_1_0_1_1" departPos="5.10" departSpeed="10.00" departDelay="0.00" arrival="264.00" arrivalLane="road_1_1_1_1" arrivalPos="300.00" arrivalSpeed="13.44" duration="50.00" routeLength="621.01" waitingTime="0.00" waitingCount="0" stopTime="0.00" timeLoss="5.12" rerouteNo="0" devices="tripinfo_S_N_62" vType="standard_car" speedFactor="1.02" vaporized=""/>
    <tripinfo id="N_S_69" depart="222.00" departLane="road_1_2_3_2" departPos="5.10" departSpeed="10.00" departDelay="0.00" arrival="268.00" arrivalLane="road_1_1_3_1" arrivalPos="300.00" arrivalSpeed="13.84" duration="46.00" routeLength="621.01" waitingTime="0.00" waitingCount="0" stopTime="0.00" timeLoss="1.96" rerouteNo="0" devices="tripinfo_N_S_69" vType="standard_car" speedFactor="1.02" vaporized=""/>
    <tripinfo id="N_W_70" depart="222.00" departLane="road_1_2_3_1" departPos="5.10" departSpeed="10.00" departDelay="0.00" arrival="270.00" arrivalLane="road_1_1_2_1" arrivalPos="300.00" arrivalSpeed="13.64" duration="48.00" routeLength="603.77" waitingTime="0.00" waitingCount="0" stopTime="0.00" timeLoss="5.01" rerouteNo="0" devices="tripinfo_N_W_70" vType="standard_car" speedFactor="1.02" vaporized=""/>
    <tripinfo id="N_W_65" depart="217.00" departLane="road_1_2_3_2" departPos="5.10" departSpeed="10.00" departDelay="0.00" arrival="272.00" arrivalLane="road_1_1_2_0" arrivalPos="300.00" arrivalSpeed="12.09" duration="55.00" routeLength="603.77" waitingTime="0.00" waitingCount="0" stopTime="0.00" timeLoss="3.95" rerouteNo="0" devices="tripinfo_N_W_65" vType="standard_car" speedFactor="0.88" vaporized=""/>
    <tripinfo id="E_N_66" depart="218.00" departLane="road_2_1_2_1" departPos="5.10" departSpeed="10.00" departDelay="0.00" arrival="272.00" arrivalLane="road_1_1_1_0" arrivalPos="300.00" arrivalSpeed="12.13" duration="54.00" routeLength="603.77" waitingTime="0.00" waitingCount="0" stopTime="0.00" timeLoss="4.61" rerouteNo="0" devices="tripinfo_E_N_66" vType="standard_car" speedFactor="0.91" vaporized=""/>
    <tripinfo id="N_W_73" depart="226.00" departLane="road_1_2_3_1" departPos="5.10" departSpeed="10.00" departDelay="0.00" arrival="272.00" arrivalLane="road_1_1_2_1" arrivalPos="300.00" arrivalSpeed="14.64" duration="46.00" routeLength="603.77" waitingTime="0.00" waitingCount="0" stopTime="0.00" timeLoss="4.33" rerouteNo="0" devices="tripinfo_N_W_73" vType="standard_car" speedFactor="1.06" vaporized=""/>
    <tripinfo id="W_S_71" depart="223.00" departLane="road_0_1_0_0" departPos="5.10" departSpeed="10.00" departDelay="0.00" arrival="273.00" arrivalLane="road_1_1_3_0" arrivalPos="300.00" arrivalSpeed="13.27" duration="50.00" routeLength="603.77" waitingTime="0.00" waitingCount="0" stopTime="0.00" timeLoss="4.14" rerouteNo="0" devices="tripinfo_W_S_71" vType="standard_car" speedFactor="0.97" vaporized=""/>
    <tripinfo id="N_S_72" depart="225.00" departLane="road_1_2_3_2" departPos="5.10" departSpeed="10.00" departDelay="0.00" arrival="275.00" arrivalLane="road_1_1_3_1" arrivalPos="300.00" arrivalSpeed="12.19" duration="50.00" routeLength="621.01" waitingTime="0.00" waitingCount="0" stopTime="0.00" timeLoss="2.00" rerouteNo="0" devices="tripinfo_N_S_72" vType="standard_car" speedFactor="0.94" vaporized=""/>
    <tripinfo id="S_E_76" depart="229.00" departLane="road_1_0_1_2" departPos="5.10" departSpeed="10.00" departDelay="0.00" arrival="276.00" arrivalLane="road_1_1_0_0" arrivalPos="300.00" arrivalSpeed="14.00" duration="47.00" routeLength="603.77" waitingTime="0.00" waitingCount="0" stopTime="0.00" timeLoss="3.71" rerouteNo="0" devices="tripinfo_S_E_76" vType="standard_car" speedFactor="1.03" vaporized=""/>
    <tripinfo id="N_S_74" depart="228.00" departLane="road_1_2_3_1" departPos="5.10" departSpeed="10.00" departDelay="0.00" arrival="278.00" arrivalLane="road_1_1_3_0" arrivalPos="300.00" arrivalSpeed="13.02" duration="50.00" routeLength="621.01" waitingTime="0.00" waitingCount="0" stopTime="0.00" timeLoss="2.25" rerouteNo="0" devices="tripinfo_N_S_74" vType="standard_car" speedFactor="0.96" vaporized=""/>
    <tripinfo id="E_N_75" depart="229.00" departLane="road_2_1_2_1" departPos="5.10" departSpeed="10.00" departDelay="0.00" arrival="278.00" arrivalLane="road_1_1_1_0" arrivalPos="300.00" arrivalSpeed="13.47" duration="49.00" routeLength="603.77" waitingTime="0.00" waitingCount="0" stopTime="0.00" timeLoss="3.88" rerouteNo="0" devices="tripinfo_E_N_75" vType="standard_car" speedFactor="0.98" vaporized=""/>
    <tripinfo id="N_S_79" depart="234.00" departLane="road_1_2_3_2" departPos="5.10" departSpeed="10.00" departDelay="0.00" arrival="279.00" arrivalLane="road_1_1_3_1" arrivalPos="300.00" arrivalSpeed="14.86" duration="45.00" routeLength="621.01" waitingTime="0.00" waitingCount="0" stopTime="0.00" timeLoss="2.76" rerouteNo="0" devices="tripinfo_N_S_79" vType="standard_car" speedFactor="1.09" vaporized=""/>
    <tripinfo id="N_W_78" depart="233.00" departLane="road_1_2_3_0" departPos="5.10" departSpeed="10.00" departDelay="0.00" arrival="281.00" arrivalLane="road_1_1_2_0" arrivalPos="300.00" arrivalSpeed="13.90" duration="48.00" routeLength="603.77" waitingTime="0.00" waitingCount="0" stopTime="0.00" timeLoss="4.04" rerouteNo="0" devices="tripinfo_N_W_78" vType="standard_car" speedFactor="1.01" vaporized=""/>
    <tripinfo id="N_W_80" depart="235.00" departLane="road_1_2_3_0" departPos="5.10" departSpeed="10.00" departDelay="0.00" arrival="283.00" arrivalLane="road_1_1_2_0" arrivalPos="300.00" arrivalSpeed="13.97" duration="48.00" routeLength="603.77" waitingTime="0.00" waitingCount="0" stopTime="0.00" timeLoss="4.51" rerouteNo="0" devices="tripinfo_N_W_80" vType="standard_car" speedFactor="1.03" vaporized=""/>
    <tripinfo id="S_N_83" depart="241.00" departLane="road_1_0_1_0" departPos="5.10" departSpeed="10.00" departDelay="0.00" arrival="299.00" arrivalLane="road_1_1_1_0" arrivalPos="300.00" arrivalSpeed="13.04" duration="58.00" routeLength="621.01" waitingTime="6.00" waitingCount="1" stopTime="0.00" timeLoss="11.34" rerouteNo="0" devices="tripinfo_S_N_83" vType="standard_car" speedFactor="0.97" vaporized=""/>
    <tripinfo id="S_N_85" depart="245.00" departLane="road_1_0_1_1" departPos="5.10" departSpeed="10.00" departDelay="0.00" arrival="301.00" arrivalLane="road_1_1_1_1" arrivalPos="300.00" arrivalSpeed="13.00" duration="56.00" routeLength="621.01" waitingTime="2.00" waitingCount="1" stopTime="0.00" timeLoss="9.73" rerouteNo="0" devices="tripinfo_S_N_85" vType="standard_car" speedFactor="0.98" vaporized=""/>
    <tripinfo id="S_N_87" depart="255.00" departLane="road_1_0_1_0" departPos="5.10" departSpeed="10.00" departDelay="0.00" arrival="303.00" arrivalLane="road_1_1_1_1" arrivalPos="300.00" arrivalSpeed="13.60" duration="48.00" routeLength="621.01" waitingTime="0.00" waitingCount="0" stopTime="0.00" timeLoss="4.38" rerouteNo="0" devices="tripinfo_S_N_87" vType="standard_car" speedFactor="1.04" vaporized=""/>
    <tripinfo id="N_W_88" depart="259.00" departLane="road_1_2_3_2" departPos="5.10" departSpeed="10.00" departDelay="0.00" arrival="308.00" arrivalLane="road_1_1_2_0" arrivalPos="300.00" arrivalSpeed="13.95" duration="49.00" routeLength="603.77" waitingTime="0.00" waitingCount="0" stopTime="0.00" timeLoss="4.63" rerouteNo="0" devices="tripinfo_N_W_88" vType="standard_car" speedFactor="1.01" vaporized=""/>
    <tripinfo id="S_E_89" depart="266.00" departLane="road_1_0_1_2" departPos="5.10" departSpeed="10.00" departDelay="0.00" arrival="313.00" arrivalLane="road_1_1_0_0" arrivalPos="300.00" arrivalSpeed="14.14" duration="47.00" routeLength="603.77" waitingTime="0.00" waitingCount="0" stopTime="0.00" timeLoss="3.94" rerouteNo="0" devices="tripinfo_S_E_89" vType="standard_car" speedFactor="1.02" vaporized=""/>
    <tripinfo id="W_S_93" depart="267.00" departLane="road_0_1_0_0" departPos="5.10" departSpeed="10.00" departDelay="0.00" arrival="319.00" arrivalLane="road_1_1_3_0" arrivalPos="300.00" arrivalSpeed="12.57" duration="52.00" routeLength="603.77" waitingTime="0.00" waitingCount="0" stopTime="0.00" timeLoss="3.45" rerouteNo="0" devices="tripinfo_W_S_93" vType="standard_car" speedFactor="0.92" vaporized=""/>
    <tripinfo id="S_N_97" depart="271.00" departLane="road_1_0_1_0" departPos="5.10" departSpeed="10.00" departDelay="0.00" arrival="323.00" arrivalLane="road_1_1_1_0" arrivalPos="300.00" arrivalSpeed="12.38" duration="52.00" routeLength="621.01" waitingTime="0.00" waitingCount="0" stopTime="0.00" timeLoss="2.25" rerouteNo="0" devices="tripinfo_S_N_97" vType="standard_car" speedFactor="0.91" vaporized=""/>
    <tripinfo id="N_W_105" depart="280.00" departLane="road_1_2_3_1" departPos="5.10" departSpeed="10.00" departDelay="0.00" arrival="325.00" arrivalLane="road_1_1_2_0" arrivalPos="300.00" arrivalSpeed="13.95" duration="45.00" routeLength="603.77" waitingTime="0.00" waitingCount="0" stopTime="0.00" timeLoss="3.46" rerouteNo="0" devices="tripinfo_N_W_105" vType="standard_car" speedFactor="1.07" vaporized=""/>