<?xml version="1.0" encoding="UTF-8"?>

<!-- generated on 2022-05-23 10:17:02 by Eclipse SUMO sumo Version 1.10.0
<configuration xmlns:xsi="http://www.w3.org/2001/XMLSchema-instance" xsi:noNamespaceSchemaLocation="http://sumo.dlr.de/xsd/sumoConfiguration.xsd">

    <input>
        <net-file value="./sumoNet4/net.net.xml"/>
        <route-files value="./sumoNet4/test155.rou.xml"/>
    </input>

    <output>
        <tripinfo-output value="tripinfo.xml"/>
    </output>

    <time>
        <begin value="0"/>
        <step-length value="1"/>
    </time>

    <processing>
        <time-to-teleport value="-1"/>
        <waiting-time-memory value="15"/>
    </processing>

    <traci_server>
        <remote-port value="56487"/>
    </traci_server>

    <gui_only>
        <quit-on-end value="true"/>
        <start value="true"/>
        <tracker-interval value="1"/>
    </gui_only>

</configuration>
-->

<tripinfos xmlns:xsi="http://www.w3.org/2001/XMLSchema-instance" xsi:noNamespaceSchemaLocation="http://sumo.dlr.de/xsd/tripinfo_file.xsd">
    <tripinfo id="S_N_3" depart="73.00" departLane="road_1_0_1_0" departPos="5.10" departSpeed="10.00" departDelay="0.00" arrival="117.00" arrivalLane="road_1_1_1_1" arrivalPos="300.00" arrivalSpeed="14.28" duration="44.00" routeLength="621.01" waitingTime="0.00" waitingCount="0" stopTime="0.00" timeLoss="1.82" rerouteNo="0" devices="tripinfo_S_N_3" vType="standard_car" speedFactor="1.08" vaporized=""/>
    <tripinfo id="S_E_6" depart="80.00" departLane="road_1_0_1_1" departPos="5.10" departSpeed="10.00" departDelay="0.00" arrival="127.00" arrivalLane="road_1_1_0_0" arrivalPos="300.00" arrivalSpeed="14.37" duration="47.00" routeLength="603.77" waitingTime="0.00" waitingCount="0" stopTime="0.00" timeLoss="4.25" rerouteNo="0" devices="tripinfo_S_E_6" vType="standard_car" speedFactor="1.05" vaporized=""/>
    <tripinfo id="N_S_2" depart="66.00" departLane="road_1_2_3_2" departPos="5.10" departSpeed="10.00" departDelay="0.00" arrival="134.00" arrivalLane="road_1_1_3_1" arrivalPos="300.00" arrivalSpeed="13.92" duration="68.00" routeLength="621.01" waitingTime="16.00" waitingCount="1" stopTime="0.00" timeLoss="23.01" rerouteNo="0" devices="tripinfo_N_S_2" vType="standard_car" speedFactor="1.01" vaporized=""/>
    <tripinfo id="N_S_4" depart="75.00" departLane="road_1_2_3_2" departPos="5.10" departSpeed="10.00" departDelay="0.00" arrival="135.00" arrivalLane="road_1_1_3_1" arrivalPos="300.00" arrivalSpeed="14.29" duration="60.00" routeLength="621.01" waitingTime="8.00" waitingCount="1" stopTime="0.00" timeLoss="16.57" rerouteNo="0" devices="tripinfo_N_S_4" vType="standard_car" speedFactor="1.03" vaporized=""/>
    <tripinfo id="N_W_5" depart="77.00" departLane="road_1_2_3_1" departPos="5.10" departSpeed="10.00" departDelay="0.00" arrival="135.00" arrivalLane="road_1_1_2_0" arrivalPos="300.00" arrivalSpeed="10.97" duration="58.00" routeLength="603.77" waitingTime="0.00" waitingCount="0" stopTime="0.00" timeLoss="4.31" rerouteNo="0" devices="tripinfo_N_W_5" vType="standard_car" speedFactor="0.83" vaporized=""/>
    <tripinfo id="N_S_7" depart="85.00" departLane="road_1_2_3_1" departPos="5.10" departSpeed="10.00" departDelay="0.00" arrival="140.00" arrivalLane="road_1_1_3_0" arrivalPos="300.00" arrivalSpeed="11.32" duration="55.00" routeLength="621.01" waitingTime="0.00" waitingCount="0" stopTime="0.00" timeLoss="4.47" rerouteNo="0" devices="tripinfo_N_S_7" vType="standard_car" speedFactor="0.89" vaporized=""/>
    <tripinfo id="N_S_8" depart="91.00" departLane="road_1_2_3_1" departPos="5.10" departSpeed="10.00" departDelay="0.00" arrival="141.00" arrivalLane="road_1_1_3_1" arrivalPos="300.00" arrivalSpeed="12.14" duration="50.00" routeLength="621.01" waitingTime="0.00" waitingCount="0" stopTime="0.00" timeLoss="2.17" rerouteNo="0" devices="tripinfo_N_S_8" vType="standard_car" speedFactor="0.94" vaporized=""/>
    <tripinfo id="E_N_9" depart="92.00" departLane="road_2_1_2_1" departPos="5.10" departSpeed="10.00" departDelay="0.00" arrival="148.00" arrivalLane="road_1_1_1_0" arrivalPos="300.00" arrivalSpeed="11.89" duration="56.00" routeLength="603.77" waitingTime="0.00" waitingCount="0" stopTime="0.00" timeLoss="4.05" rerouteNo="0" devices="tripinfo_E_N_9" vType="standard_car" speedFactor="0.86" vaporized=""/>
    <tripinfo id="N_S_11" depart="102.00" departLane="road_1_2_3_0" departPos="5.10" departSpeed="10.00" departDelay="0.00" arrival="148.00" arrivalLane="road_1_1_3_1" arrivalPos="300.00" arrivalSpeed="14.25" duration="46.00" routeLength="621.01" waitingTime="0.00" waitingCount="0" stopTime="0.00" timeLoss="1.64" rerouteNo="0" devices="tripinfo_N_S_11" vType="standard_car" speedFactor="1.03" vaporized=""/>
    <tripinfo id="N_S_13" depart="105.00" departLane="road_1_2_3_2" departPos="5.10" departSpeed="10.00" departDelay="0.00" arrival="149.00" arrivalLane="road_1_1_3_1" arrivalPos="300.00" arrivalSpeed="14.51" duration="44.00" routeLength="621.01" waitingTime="0.00" waitingCount="0" stopTime="0.00" timeLoss="2.55" rerouteNo="0" devices="tripinfo_N_S_13" vType="standard_car" speedFactor="1.12" vaporized=""/>
    <tripinfo id="N_W_12" depart="104.00" departLane="road_1_2_3_0" departPos="5.10" departSpeed="10.00" departDelay="1.00" arrival="150.00" arrivalLane="road_1_1_2_0" arrivalPos="300.00" arrivalSpeed="14.27" duration="46.00" routeLength="603.77" waitingTime="0.00" waitingCount="0" stopTime="0.00" timeLoss="3.56" rerouteNo="0" devices="tripinfo_N_W_12" vType="standard_car" speedFactor="1.05" vaporized=""/>
    <tripinfo id="E_N_14" depart="105.00" departLane="road_2_1_2_0" departPos="5.10" departSpeed="10.00" departDelay="0.00" arrival="154.00" arrivalLane="road_1_1_1_0" arrivalPos="300.00" arrivalSpeed="12.81" duration="49.00" routeLength="603.77" waitingTime="0.00" waitingCount="0" stopTime="0.00" timeLoss="3.79" rerouteNo="0" devices="tripinfo_E_N_14" vType="standard_car" speedFactor="0.99" vaporized=""/>
    <tripinfo id="S_N_15" depart="109.00" departLane="road_1_0_1_1" departPos="5.10" departSpeed="10.00" departDelay="0.00" arrival="169.00" arrivalLane="road_1_1_1_0" arrivalPos="300.00" arrivalSpeed="12.85" duration="60.00" routeLength="621.01" waitingTime="4.00" waitingCount="1" stopTime="0.00" timeLoss="11.19" rerouteNo="0" devices="tripinfo_S_N_15" vType="standard_car" speedFactor="0.93" vaporized=""/>
    <tripinfo id="S_N_21" depart="125.00" departLane="road_1_0_1_0" departPos="5.10" departSpeed="10.00" departDelay="0.00" arrival="171.00" arrivalLane="road_1_1_1_1" arrivalPos="300.00" arrivalSpeed="13.71" duration="46.00" routeLength="621.01" waitingTime="0.00" waitingCount="0" stopTime="0.00" timeLoss="1.48" rerouteNo="0" devices="tripinfo_S_N_21" vType="standard_car" speedFactor="1.01" vaporized=""/>
    <tripinfo id="E_N_22" depart="126.00" departLane="road_2_1_2_2" departPos="5.10" departSpeed="10.00" departDelay="0.00" arrival="175.00" arrivalLane="road_1_1_1_0" arrivalPos="300.00" arrivalSpeed="12.91" duration="49.00" routeLength="603.77" waitingTime="0.00" waitingCount="0" stopTime="0.00" timeLoss="3.60" rerouteNo="0" devices="tripinfo_E_N_22" vType="standard_car" speedFactor="0.98" vaporized=""/>
    <tripinfo id="S_E_27" depart="132.00" departLane="road_1_0_1_0" departPos="5.10" departSpeed="10.00" departDelay="0.00" arrival="183.00" arrivalLane="road_1_1_0_0" arrivalPos="300.00" arrivalSpeed="12.75" duration="51.00" routeLength="603.77" waitingTime="0.00" waitingCount="0" stopTime="0.00" timeLoss="3.87" rerouteNo="0" devices="tripinfo_S_E_27" vType="standard_car" speedFactor="0.95" vaporized=""/>
    <tripinfo id="E_N_24" depart="129.00" departLane="road_2_1_2_1" departPos="5.10" departSpeed="10.00" departDelay="0.00" arrival="187.00" arrivalLane="road_1_1_1_0" arrivalPos="300.00" arrivalSpeed="10.48" duration="58.00" routeLength="603.77" waitingTime="0.00" waitingCount="0" stopTime="0.00" timeLoss="4.04" rerouteNo="0" devices="tripinfo_E_N_24" vType="standard_car" speedFactor="0.83" vaporized=""/>
    <tripinfo id="S_N_29" depart="148.00" departLane="road_1_0_1_0" departPos="5.10" departSpeed="10.00" departDelay="0.00" arrival="199.00" arrivalLane="road_1_1_1_0" arrivalPos="300.00" arrivalSpeed="12.40" duration="51.00" routeLength="621.01" waitingTime="0.00" waitingCount="0" stopTime="0.00" timeLoss="2.05" rerouteNo="0" devices="tripinfo_S_N_29" vType="standard_car" speedFactor="0.93" vaporized=""/>
    <tripinfo id="S_N_33" depart="164.00" departLane="road_1_0_1_2" departPos="5.10" departSpeed="10.00" departDelay="0.00" arrival="208.00" arrivalLane="road_1_1_1_1" arrivalPos="300.00" arrivalSpeed="14.14" duration="44.00" routeLength="621.01" waitingTime="0.00" waitingCount="0" stopTime="0.00" timeLoss="1.91" rerouteNo="0" devices="tripinfo_S_N_33" vType="standard_car" speedFactor="1.17" vaporized=""/>
    <tripinfo id="N_W_32" depart="162.00" departLane="road_1_2_3_1" departPos="5.10" departSpeed="10.00" departDelay="0.00" arrival="210.00" arrivalLane="road_1_1_2_0" arrivalPos="300.00" arrivalSpeed="13.77" duration="48.00" routeLength="603.77" waitingTime="0.00" waitingCount="0" stopTime="0.00" timeLoss="3.43" rerouteNo="0" devices="tripinfo_N_W_32" vType="standard_car" speedFactor="1.01" vaporized=""/>
    <tripinfo id="E_N_34" depart="169.00" departLane="road_2_1_2_1" departPos="5.10" departSpeed="10.00" departDelay="0.00" arrival="218.00" arrivalLane="road_1_1_1_0" arrivalPos="300.00" arrivalSpeed="13.34" duration="49.00" routeLength="603.77" waitingTime="0.00" waitingCount="0" stopTime="0.00" timeLoss="3.72" rerouteNo="0" devices="tripinfo_E_N_34" vType="standard_car" speedFactor="0.99" vaporized=""/>
    <tripinfo id="E_N_35" depart="173.00" departLane="road_2_1_2_1" departPos="5.10" departSpeed="10.00" departDelay="0.00" arrival="221.00" arrivalLane="road_1_1_1_0" arrivalPos="300.00" arrivalSpeed="13.19" duration="48.00" routeLength="603.77" waitingTime="0.00" waitingCount="0" stopTime="0.00" timeLoss="4.38" rerouteNo="0" devices="tripinfo_E_N_35" vType="standard_car" speedFactor="1.02" vaporized=""/>
    <tripinfo id="N_W_36" depart="173.00" departLane="road_1_2_3_2" departPos="5.10" departSpeed="10.00" departDelay="0.00" arrival="223.00" arrivalLane="road_1_1_2_0" arrivalPos="300.00" arrivalSpeed="13.22" duration="50.00" routeLength="603.77" waitingTime="0.00" waitingCount="0" stopTime="0.00" timeLoss="3.96" rerouteNo="0" devices="tripinfo_N_W_36" vType="standard_car" speedFactor="0.97" vaporized=""/>
    <tripinfo id="E_W_1" depart="44.00" departLane="road_2_1_2_1" departPos="5.10" departSpeed="10.00" departDelay="0.00" arrival="234.00" arrivalLane="road_1_1_2_0" arrivalPos="300.00" arrivalSpeed="12.34" duration="190.00" routeLength="621.01" waitingTime="135.00" waitingCount="1" stopTime="0.00" timeLoss="142.17" rerouteNo="0" devices="tripinfo_E_W_1" vType="standard_car" speedFactor="0.94" vaporized=""/>
    <tripinfo id="E_N_41" depart="183.00" departLane="road_2_1_2_0" departPos="5.10" departSpeed="10.00" departDelay="0.00" arrival="234.00" arrivalLane="road_1_1_1_0" arrivalPos="300.00" arrivalSpeed="12.88" duration="51.00" routeLength="603.77" waitingTime="0.00" waitingCount="0" stopTime="0.00" timeLoss="4.37" rerouteNo="0" devices="tripinfo_E_N_41" vType="standard_car" speedFactor="0.96" vaporized=""/>
    <tripinfo id="E_W_37" depart="176.00" departLane="road_2_1_2_1" departPos="5.10" departSpeed="10.00" departDelay="0.00" arrival="235.00" arrivalLane="road_1_1_2_1" arrivalPos="300.00" arrivalSpeed="14.01" duration="59.00" routeLength="621.01" waitingTime="6.00" waitingCount="1" stopTime="0.00" timeLoss="16.98" rerouteNo="0" devices="tripinfo_E_W_37" vType="standard_car" speedFactor="1.18" vaporized=""/>
    <tripinfo id="E_W_40" depart="180.00" departLane="road_2_1_2_1" departPos="5.10" departSpeed="10.00" departDelay="0.00" arrival="237.00" arrivalLane="road_1_1_2_1" arrivalPos="300.00" arrivalSpeed="13.62" duration="57.00" routeLength="621.01" waitingTime="3.00" waitingCount="1" stopTime="0.00" timeLoss="13.15" rerouteNo="0" devices="tripinfo_E_W_40" vType="standard_car" speedFactor="1.03" vaporized=""/>
    <tripinfo id="W_S_42" depart="192.00" departLane="road_0_1_0_1" departPos="5.10" departSpeed="10.00" departDelay="0.00" arrival="237.00" arrivalLane="road_1_1_3_0" arrivalPos="300.00" arrivalSpeed="14.21" duration="45.00" routeLength="603.77" waitingTime="0.00" waitingCount="0" stopTime="0.00" timeLoss="3.63" rerouteNo="0" devices="tripinfo_W_S_42" vType="standard_car" speedFactor="1.09" vaporized=""/>
    <tripinfo id="E_N_45" depart="199.00" departLane="road_2_1_2_0" departPos="5.10" departSpeed="10.00" departDelay="0.00" arrival="245.00" arrivalLane="road_1_1_1_0" arrivalPos="300.00" arrivalSpeed="14.27" duration="46.00" routeLength="603.77" waitingTime="0.00" waitingCount="0" stopTime="0.00" timeLoss="4.50" rerouteNo="0" devices="tripinfo_E_N_45" vType="standard_car" speedFactor="1.09" vaporized=""/>
    <tripinfo id="N_W_46" depart="200.00" departLane="road_1_2_3_1" departPos="5.10" departSpeed="10.00" departDelay="0.00" arrival="249.00" arrivalLane="road_1_1_2_0" arrivalPos="300.00" arrivalSpeed="13.41" duration="49.00" routeLength="603.77" waitingTime="0.00" waitingCount="0" stopTime="0.00" timeLoss="3.79" rerouteNo="0" devices="tripinfo_N_W_46" vType="standard_car" speedFactor="1.00" vaporized=""/>
    <tripinfo id="W_S_48" depart="203.00" departLane="road_0_1_0_0" departPos="5.10" departSpeed="10.00" departDelay="0.00" arrival="258.00" arrivalLane="road_1_1_3_0" arrivalPos="300.00" arrivalSpeed="11.79" duration="55.00" routeLength="603.77" waitingTime="0.00" waitingCount="0" stopTime="0.00" timeLoss="3.99" rerouteNo="0" devices="tripinfo_W_S_48" vType="standard_car" speedFactor="0.88" vaporized=""/>
    <tripinfo id="S_E_54" depart="213.00" departLane="road_1_0_1_2" departPos="5.10" departSpeed="10.00" departDelay="0.00" arrival="262.00" arrivalLane="road_1_1_0_0" arrivalPos="300.00" arrivalSpeed="13.56" duration="49.00" routeLength="603.77" waitingTime="0.00" waitingCount="0" stopTime="0.00" timeLoss="4.00" rerouteNo="0" devices="tripinfo_S_E_54" vType="standard_car" speedFactor="1.00" vaporized=""/>
    <tripinfo id="N_W_50" depart="211.00" departLane="road_1_2_3_2" departPos="5.10" departSpeed="10.00" departDelay="0.00" arrival="266.00" arrivalLane="road_1_1_2_0" arrivalPos="300.00" arrivalSpeed="11.00" duration="55.00" routeLength="603.77" waitingTime="0.00" waitingCount="0" stopTime="0.00" timeLoss="3.61" rerouteNo="0" devices="tripinfo_N_W_50" vType="standard_car" speedFactor="0.85" vaporized=""/>
    <tripinfo id="E_N_56" depart="215.00" departLane="road_2_1_2_2" departPos="5.10" departSpeed="10.00" departDelay="0.00" arrival="268.00" arrivalLane="road_1_1_1_0" arrivalPos="300.00" arrivalSpeed="11.73" duration="53.00" routeLength="603.77" waitingTime="0.00" waitingCount="0" stopTime="0.00" timeLoss="3.98" rerouteNo="0" devices="tripinfo_E_N_56" vType="standard_car" speedFactor="0.90" vaporized=""/>
    <tripinfo id="N_S_16" depart="111.00" departLane="road_1_2_3_2" departPos="5.10" departSpeed="10.00" departDelay="0.00" arrival="269.00" arrivalLane="road_1_1_3_0" arrivalPos="300.00" arrivalSpeed="11.65" duration="158.00" routeLength="621.01" waitingTime="98.00" waitingCount="1" stopTime="0.00" timeLoss="106.47" rerouteNo="0" devices="tripinfo_N_S_16" vType="standard_car" speedFactor="0.88" vaporized=""/>
    <tripinfo id="N_S_17" depart="113.00" departLane="road_1_2_3_0" departPos="5.10" departSpeed="10.00" departDelay="0.00" arrival="270.00" arrivalLane="road_1_1_3_1" arrivalPos="300.00" arrivalSpeed="12.33" duration="157.00" routeLength="621.01" waitingTime="98.00" waitingCount="1" stopTime="0.00" timeLoss="108.83" rerouteNo="0" devices="tripinfo_N_S_17" vType="standard_car" speedFactor="0.94" vaporized=""/>
    <tripinfo id="N_S_18" depart="117.00" departLane="road_1_2_3_1" departPos="5.10" departSpeed="10.00" departDelay="0.00" arrival="272.00" arrivalLane="road_1_1_3_0" arrivalPos="300.00" arrivalSpeed="12.11" duration="155.00" routeLength="621.01" waitingTime="97.00" waitingCount="1" stopTime="0.00" timeLoss="106.41" rerouteNo="0" devices="tripinfo_N_S_18" vType="standard_car" speedFactor="0.94" vaporized=""/>
    <tripinfo id="N_S_19" depart="119.00" departLane="road_1_2_3_2" departPos="5.10" departSpeed="10.00" departDelay="1.00" arrival="273.00" arrivalLane="road_1_1_3_1" arrivalPos="300.00" arrivalSpeed="14.99" duration="154.00" routeLength="621.01" waitingTime="96.00" waitingCount="1" stopTime="0.00" timeLoss="111.99" rerouteNo="0" devices="tripinfo_N_S_19" vType="standard_car" speedFactor="1.16" vaporized=""/>
    <tripinfo id="N_S_20" depart="124.00" departLane="road_1_2_3_0" departPos="5.10" departSpeed="10.00" departDelay="0.00" arrival="275.00" arrivalLane="road_1_1_3_1" arrivalPos="300.00" arrivalSpeed="13.68" duration="151.00" routeLength="621.01" waitingTime="94.00" waitingCount="1" stopTime="0.00" timeLoss="106.31" rerouteNo="0" devices="tripinfo_N_S_20" vType="standard_car" speedFactor="1.02" vaporized=""/>
    <tripinfo id="N_S_23" depart="126.00" departLane="road_1_2_3_0" departPos="5.10" departSpeed="10.00" departDelay="0.00" arrival="278.00" arrivalLane="road_1_1_3_0" arrivalPos="300.00" arrivalSpeed="11.77" duration="152.00" routeLength="621.01" waitingTime="91.00" waitingCount="1" stopTime="0.00" timeLoss="101.62" rerouteNo="0" devices="tripinfo_N_S_23" vType="standard_car" speedFactor="0.89" vaporized=""/>
    <tripinfo id="N_S_28" depart="139.00" departLane="road_1_2_3_1" departPos="5.10" departSpeed="10.00" departDelay="0.00" arrival="279.00" arrivalLane="road_1_1_3_2" arrivalPos="300.00" arrivalSpeed="14.39" duration="140.00" routeLength="621.01" waitingTime="87.00" waitingCount="1" stopTime="0.00" timeLoss="98.09" rerouteNo="0" devices="tripinfo_N_S_28" vType="standard_car" speedFactor="1.13" vaporized=""/>
    <tripinfo id="N_S_25" depart="129.00" departLane="road_1_2_3_2" departPos="5.10" departSpeed="10.00" departDelay="0.00" arrival="281.00" arrivalLane="road_1_1_3_0" arrivalPos="300.00" arrivalSpeed="11.78" duration="152.00" routeLength="621.01" waitingTime="89.00" waitingCount="1" stopTime="0.00" timeLoss="100.70" rerouteNo="0" devices="tripinfo_N_S_25" vType="standard_car" speedFactor="0.87" vaporized=""/>
    <tripinfo id="N_S_30" depart="151.00" departLane="road_1_2_3_2" departPos="5.10" departSpeed="10.00" departDelay="0.00" arrival="281.00" arrivalLane="road_1_1_3_1" arrivalPos="300.00" arrivalSpeed="14.05" duration="130.00" routeLength="621.01" waitingTime="75.00" waitingCount="1" stopTime="0.00" timeLoss="88.04" rerouteNo="0" devices="tripinfo_N_S_30" vType="standard_car" speedFactor="1.18" vaporized=""/>
    <tripinfo id="N_S_38" depart="177.00" departLane="road_1_2_3_1" departPos="5.10" departSpeed="10.00" departDelay="0.00" arrival="283.00" arrivalLane="road_1_1_3_1" arrivalPos="300.00" arrivalSpeed="14.15" duration="106.00" routeLength="621.01" waitingTime="52.00" waitingCount="1" stopTime="0.00" timeLoss="63.81" rerouteNo="0" devices="tripinfo_N_S_38" vType="standard_car" speedFactor="1.10" vaporized=""/>
    <tripinfo id="N_S_43" depart="194.00" departLane="road_1_2_3_1" departPos="5.10" departSpeed="10.00" departDelay="0.00" arrival="285.00" arrivalLane="road_1_1_3_1" arrivalPos="300.00" arrivalSpeed="13.93" duration="91.00" routeLength="621.01" waitingTime="36.00" waitingCount="1" stopTime="0.00" timeLoss="47.19" rerouteNo="0" devices="tripinfo_N_S_43" vType="standard_car" speedFactor="1.04" vaporized=""/>
    <tripinfo id="N_S_55" depart="213.00" departLane="road_1_2_3_2" departPos="5.10" departSpeed="10.00" departDelay="0.00" arrival="287.00" arrivalLane="road_1_1_3_1" arrivalPos="300.00" arrivalSpeed="13.39" duration="74.00" routeLength="621.01" waitingTime="16.00" waitingCount="1" stopTime="0.00" timeLoss="28.70" rerouteNo="0" devices="tripinfo_N_S_55" vType="standard_car" speedFactor="1.00" vaporized=""/>
    <tripinfo id="N_S_52" depart="212.00" departLane="road_1_2_3_1" departPos="5.10" departSpeed="10.00" departDelay="0.00" arrival="289.00" arrivalLane="road_1_1_3_1" arrivalPos="300.00" arrivalSpeed="14.00" duration="77.00" routeLength="621.01" waitingTime="16.00" waitingCount="1" stopTime="0.00" timeLoss="32.24" rerouteNo="0" devices="tripinfo_N_S_52" vType="standard_car" speedFactor="1.02" vaporized=""/>
    <tripinfo id="W_S_65" depart="238.00" departLane="road_0_1_0_0" departPos="5.10" departSpeed="10.00" departDelay="0.00" arrival="293.00" arrivalLane="road_1_1_3_0" arrivalPos="300.00" arrivalSpeed="11.34" duration="55.00" routeLength="603.77" waitingTime="0.00" waitingCount="0" stopTime="0.00" timeLoss="4.04" rerouteNo="0" devices="tripinfo_W_S_65" vType="standard_car" speedFactor="0.88" vaporized=""/>
    <tripinfo id="E_N_77" depart="252.00" departLane="road_2_1_2_2" departPos="5.10" departSpeed="10.00" departDelay="0.00" arrival="301.00" arrivalLane="road_1_1_1_0" arrivalPos="300.00" arrivalSpeed="12.85" duration="49.00" routeLength="603.77" waitingTime="0.00" waitingCount="0" stopTime="0.00" timeLoss="4.08" rerouteNo="0" devices="tripinfo_E_N_77" vType="standard_car" speedFactor="0.98" vaporized=""/>
    <tripinfo id="W_S_72" depart="245.00" departLane="road_0_1_0_0" departPos="5.10" departSpeed="10.00" departDelay="0.00" arrival="302.00" arrivalLane="road_1_1_3_0" arrivalPos="300.00" arrivalSpeed="12.37" duration="57.00" routeLength="603.77" waitingTime="1.00" waitingCount="1" stopTime="0.00" timeLoss="9.26" rerouteNo="0" devices="tripinfo_W_S_72" vType="standard_car" speedFactor="0.94" vaporized=""/>
    <tripinfo id="W_S_82" depart="257.00" departLane="road_0_1_0_0" departPos="5.10" departSpeed="10.00" departDelay="0.00" arrival="304.00" arrivalLane="road_1_1_3_0" arrivalPos="300.00" arrivalSpeed="13.23" duration="47.00" routeLength="603.77" waitingTime="0.00" waitingCount="0" stopTime="0.00" timeLoss="3.67" rerouteNo="0" devices="tripinfo_W_S_82" vType="standard_car" speedFactor="1.02" vaporized=""/>
    <tripinfo id="S_E_84" depart="262.00" departLane="road_1_0_1_0" departPos="5.10" departSpeed="10.00" departDelay="0.00" arrival="307.00" arrivalLane="road_1_1_0_0" arrivalPos="300.00" arrivalSpeed="14.01" duration="45.00" routeLength="603.77" waitingTime="0.00" waitingCount="0" stopTime="0.00" timeLoss="3.84" rerouteNo="0" devices="tripinfo_S_E_84" vType="standard_car" speedFactor="1.15" vaporized=""/>
    <tripinfo id="W_S_87" depart="265.00" departLane="road_0_1_0_0" departPos="5.10" departSpeed="10.00" departDelay="0.00" arrival="312.00" arrivalLane="road_1_1_3_0" arrivalPos="300.00" arrivalSpeed="14.11" duration="47.00" routeLength="603.77" waitingTime="0.00" waitingCount="0" stopTime="0.00" timeLoss="3.90" rerouteNo="0" devices="tripinfo_W_S_87" vType="standard_car" speedFactor="1.04" vaporized=""/>
    <tripinfo id="W_S_98" depart="275.00" departLane="road_0_1_0_2" departPos="5.10" departSpeed="10.00" departDelay="0.00" arrival="321.00" arrivalLane="road_1_1_3_1" arrivalPos="300.00" arrivalSpeed="15.00" duration="46.00" routeLength="603.77" waitingTime="0.00" waitingCount="0" stopTime="0.00" timeLoss="5.10" rerouteNo="0" devices="tripinfo_W_S_98" vType="standard_car" speedFactor="1.12" vaporized=""/>
    <tripinfo id="N_W_90" depart="269.00" departLane="road_1_2_3_2" departPos="5.10" departSpeed="10.00" departDelay="0.00" arrival="323.00" arrivalLane="road_1_1_2_1" arrivalPos="300.00" arrivalSpeed="13.57" duration="54.00" routeLength="603.77" waitingTime="0.00" waitingCount="0" stopTime="0.00" timeLoss="9.44" rerouteNo="0" devices="tripinfo_N_W_90" vType="standard_car" speedFactor="1.02" vaporized=""/>
    <tripinfo id="N_W_91" depart="269.00" departLane="road_1_2_3_1" departPos="5.10" departSpeed="10.00" departDelay="0.00" arrival="323.00" arrivalLane="road_1_1_2_0" arrivalPos="300.00" arrivalSpeed="11.75" duration="54.00" routeLength="603.77" waitingTime="0.00" waitingCount="0" stopTime="0.00" timeLoss="3.90" rerouteNo="0" devices="tripinfo_N_W_91" vType="standard_car" speedFactor="0.89" vaporized=""/>
    <tripinfo id="W_S_93" depart="271.00" departLane="road_0_1_0_2" departPos="5.10" departSpeed="10.00" departDelay="0.00" arrival="323.00" arrivalLane="road_1_1_3_0" arrivalPos="300.00" arrivalSpeed="12.47" duration="52.00" routeLength="603.77" waitingTime="0.00" waitingCount="0" stopTime="0.00" timeLoss="3.45" rerouteNo="0" devices="tripinfo_W_S_93" vType="standard_car" speedFactor="0.92" vaporized=""/>
    <tripinfo id="N_W_92" depart="271.00" departLane="road_1_2_3_1" departPos="5.10" departSpeed="10.00" departDelay="1.00" arrival="329.00" arrivalLane="road_1_1_2_0" arrivalPos="300.00" arrivalSpeed="10.74" duration="58.00" routeLength="603.77" waitingTime="0.00" waitingCount="0" stopTime="0.00" timeLoss="5.09" rerouteNo="0" devices="tripinfo_N_W_92" vType="standard_car" speedFactor="0.83" vaporized=""/>
    <tripinfo id="N_W_101" depart="283.00" departLane="road_1_2_3_0" departPos="5.10" departSpeed="10.00" departDelay="0.00" arrival="334.00" arrivalLane="road_1_1_2_0" arrivalPos="300.00" arrivalSpeed="12.62" duration="51.00" routeLength="603.77" waitingTime="0.00" waitingCount="0" stopTime="0.00" timeLoss="3.71" rerouteNo="0" devices="tripinfo_N_W_101" vType="standard_car" speedFactor="0.96" vaporized=""/>
    <tripinfo id="S_E_105" depart="289.00" departLane="road_1_0_1_0" departPos="5.10" departSpeed="10.00" departDelay="0.00" arrival="334.00" arrivalLane="road_1_1_0_0" arrivalPos="300.00" arrivalSpeed="13.95" duration="45.00" routeLength="603.77" waitingTime="0.00" waitingCount="0" stopTime="0.00" timeLoss="3.75" rerouteNo="0" devices="tripinfo_S_E_105" vType="standard_car" speedFactor="1.07" vaporized=""/>
    <tripinfo id="N_W_106" depart="289.00" departLane="road_1_2_3_0" departPos="5.10" departSpeed="10.00" departDelay="0.00" arrival="336.00" arrivalLane="road_1_1_2_0" arrivalPos="300.00" arrivalSpeed="13.82" duration="47.00" routeLength="603.77" waitingTime="0.00" waitingCount="0" stopTime="0.00" timeLoss="3.31" rerouteNo="0" devices="tripinfo_N_W_106" vType="standard_car" speedFactor="1.01" vaporized=""/>
    <tripinfo id="E_N_109" depart="296.00" departLane="road_2_1_2_2" departPos="5.10" departSpeed="10.00" departDelay="0.00" arrival="347.00" arrivalLane="road_1_1_1_0" arrivalPos="300.00" arrivalSpeed="12.42" duration="51.00" routeLength="603.77" waitingTime="0.00" waitingCount="0" stopTime="0.00" timeLoss="4.29" rerouteNo="0" devices="tripinfo_E_N_109" vType="standard_car" speedFactor="0.96" vaporized=""/>
    <tripinfo id="E_N_113" depart="303.00" departLane="road_2_1_2_1" departPos="5.10" departSpeed="10.00" departDelay="0.00" arrival="351.00" arrivalLane="road_1_1_1_0" arrivalPos="300.00" arrivalSpeed="13.95" duration="48.00" routeLength="603.77" waitingTime="0.00" waitingCount="0" stopTime="0.00" timeLoss="3.73" rerouteNo="0" devices="tripinfo_E_N_113" vType="standard_car" speedFactor="1.01" vaporized=""/>
    <tripinfo id="S_E_116" depart="310.00" departLane="road_1_0_1_1" departPos="5.10" departSpeed="10.00" departDelay="0.00" arrival="355.00" arrivalLane="road_1_1_0_0" arrivalPos="300.00" arrivalSpeed="14.62" duration="45.00" routeLength="603.77" waitingTime="0.00" waitingCount="0" stopTime="0.00" timeLoss="3.83" rerouteNo="0" devices="tripinfo_S_E_116" vType="standard_car" speedFactor="1.18" vaporized=""/>
    <tripinfo id="N_W_121" depart="318.00" departLane="road_1_2_3_1" departPos="5.10" departSpeed="10.00" departDelay="0.00" arrival="363.00" arrivalLane="road_1_1_2_0" arrivalPos="300.00" arrivalSpeed="14.58" duration="45.00" routeLength="603.77" waitingTime="0.00" waitingCount="0" stopTime="0.00" timeLoss="3.92" rerouteNo="0" devices="tripinfo_N_W_121" vType="standard_car" speedFactor="1.10" vaporized=""/>
    <tripinfo id="S_E_119" depart="314.00" departLane="road_1_0_1_1" departPos="5.10" departSpeed="10.00" departDelay="0.00" arrival="364.00" arrivalLane="road_1_1_0_0" arrivalPos="300.00" arrivalSpeed="13.98" duration="50.00" routeLength="603.77" waitingTime="1.00" waitingCount="1" stopTime="0.00" timeLoss="8.41" rerouteNo="0" devices="tripinfo_S_E_119" vType="standard_car" speedFactor="1.07" vaporized=""/>
    <tripinfo id="W_S_120" depart="316.00" departLane="road_0_1_0_1" departPos="5.10" departSpeed="10.00" departDelay="0.00" arrival="367.00" arrivalLane="road_1_1_3_0" arrivalPos="300.00" arrivalSpeed="12.85" duration="51.00" routeLength="603.77" waitingTime="0.00" waitingCount="0" stopTime="0.00" timeLoss="4.21" rerouteNo="0" devices="tripinfo_W_S_120" vType="standard_car" speedFactor="0.94" vaporized=""/>
    <tripinfo id="N_W_125" depart="326.00" departLane="road_1_2_3_2" departPos="5.10" departSpeed="10.00" departDelay="0.00" arrival="371.00" arrivalLane="road_1_1_2_0" arrivalPos="300.00" arrivalSpeed="14.30" duration="45.00" routeLength="603.77" waitingTime="0.00" waitingCount="0" stopTime="0.00" timeLoss="3.64" rerouteNo="0" devices="tripinfo_N_W_125" vType="standard_car" speedFactor="1.15" vaporized=""/>
    <tripinfo id="N_W_128" depart="327.00" departLane="road_1_2_3_2" departPos="5.10" departSpeed="10.00" departDelay="0.00" arrival="373.00" arrivalLane="road_1_1_2_0" arrivalPos="300.00" arrivalSpeed="14.37" duration="46.00" routeLength="603.77" waitingTime="0.00" waitingCount="0" stopTime="0.00" timeLoss="4.89" rerouteNo="0" devices="tripinfo_N_W_128" vType="standard_car" speedFactor="1.12" vaporized=""/>
    <tripinfo id="E_N_126" depart="327.00" departLane="road_2_1_2_2" departPos="5.10" departSpeed="10.00" departDelay="0.00" arrival="374.00" arrivalLane="road_1_1_1_0" arrivalPos="300.00" arrivalSpeed="13.74" duration="47.00" routeLength="603.77" waitingTime="0.00" waitingCount="0" stopTime="0.00" timeLoss="4.06" rerouteNo="0" devices="tripinfo_E_N_126" vType="standard_car" speedFactor="1.03" vaporized=""/>